9
Properties=species:S:1:pos:R:3:mace_mp_forces:R:3:forces:R:3 Ethanol=T initial_spacegroup units="_JSON {\"energy\": \"eV\", \"forces\": \"ev/Ang\", \"stress\": \"ev/Ang^3\"}" final_spacegroup model_path=../ml/models/mace-omat-0-medium.model arch=mace_mp mace_mp_energy=-44.96710136891945 system_name=ethanol_reactants energy=-44.96710136891945 pbc="F F F"
H        2.21252233      -0.24833443       0.74736958       0.00006429       0.00001342      -0.00010172       0.00006429       0.00001342      -0.00010172
C        1.60736052       0.14373518      -0.08545979      -0.00010665      -0.00020321       0.00002484      -0.00010665      -0.00020321       0.00002484
H        1.78463902       1.23000029      -0.13164203       0.00007171       0.00009147      -0.00003627       0.00007171       0.00009147      -0.00003627
H        1.86174463      -0.34391689      -1.02943516       0.00012753       0.00007105       0.00010169       0.00012753       0.00007105       0.00010169
C        0.14958063      -0.07874383       0.25000376      -0.00013935       0.00016028       0.00006731      -0.00013935       0.00016028       0.00006731
H       -2.57133357       0.04440644       1.78179096      -0.00009307       0.00022931       0.00037864      -0.00009307       0.00022931       0.00037864
H       -0.14604684       0.40316655       1.20433475       0.00000365      -0.00010029      -0.00008260       0.00000365      -0.00010029      -0.00008260
O       -0.63929762      -0.70586982      -0.42066807      -0.00001297      -0.00002976       0.00000850      -0.00001297      -0.00002976       0.00000850
H       -2.33056910      -0.26604350       1.14200600       0.00008485      -0.00023228      -0.00036041       0.00008485      -0.00023228      -0.00036041
