8
Lattice="5.63 0.0 0.0 0.0 5.63 0.0 0.0 0.0 5.63" Properties=species:S:1:pos:R:3:dft_forces:R:3 dft_energy=-21.27061945 dft_stress="-0.010019526962005212 0.0 0.0 0.0 0.18860719673909251 -0.0 0.0 -0.0 0.18860719673909251" free_dft_energy=-21.27061945 pbc="T T T"
Cl       0.00000000       0.00000000       0.00000000      -0.00000000      -0.00000000      -0.00000000
Cl       2.81500000       0.00000000       0.00000000      -0.00000000       0.00000000      -0.00000000
Cl       0.00000000       2.81500000       2.81500000      -0.00000000      -0.00000000      -0.00000000
Cl       2.81500000       2.81500000       2.81500000       0.00000000       0.00000000      -0.00000000
Na       2.81500000       0.00000000       2.81500000      -0.00000000      -0.00000000       0.00000000
Na       0.00000000       0.00000000       2.81500000      -0.00000000      -0.00000000      -0.00000000
Na       2.81500000       2.81500000       0.00000000       0.00000000       0.00000000       0.00000000
Na       0.00000000       2.81500000       0.00000000       0.00000000      -0.00000000      -0.00000000
8
Lattice="5.63 0.0 0.0 0.0 5.63 0.0 0.0 0.0 5.63" Properties=species:S:1:pos:R:3:dft_forces:R:3 dft_energy=-17.92897951 dft_stress="-0.06114493282961778 0.02041648536455788 -0.008625001426559326 0.02041648536455788 0.13819829111564577 -0.0028874437624049495 -0.008625001426559326 -0.0028874437624049495 0.16866202986726295" free_dft_energy=-17.92897951 pbc="T T T"
Cl       0.41701185       0.18433695       5.57961555      -4.75310117      -2.13740152      -0.97351672
Cl       2.77727202       0.22901297       0.29008243       4.77780205      -0.64331042       1.36316427
Cl       4.97500952       2.48367636       2.92999714       6.44268884      -1.99631198      -1.58739415
Cl       2.84051291       3.07838818       3.22101066      -6.80068976       1.89046841       0.66880487
Na       2.43984123       5.56054207       3.11349877       1.40448611       0.62820844       0.30746434
Na       0.21545385       5.52573848       2.75261588      -1.48886821      -0.16260933      -0.32957063
Na       3.05091935       2.62342236       0.05205718       0.48896221       0.82233312       0.67965892
Na       0.35218071       2.44272402       5.26104786      -0.07128007       1.59862329      -0.12861090
8
Lattice="5.63 0.0 0.0 0.0 5.63 0.0 0.0 0.0 5.63" Properties=species:S:1:pos:R:3:dft_forces:R:3 dft_energy=-19.79017155 dft_stress="0.015131060773995786 -0.003305597230195209 -0.009342995669557083 -0.003305597230195209 0.11721515957224984 -0.01056815332977801 -0.009342995669557083 -0.01056815332977801 0.17518827258248806" free_dft_energy=-19.79017155 pbc="T T T"
Cl       0.14614455       0.63289037       0.06374348       1.94717178      -3.36833748       0.87078264
Cl       3.27906733       5.41800015       5.03730518      -1.37905580      -0.51591478      -0.04916020
Cl       5.62696931       2.55266277       2.98862971       1.64980017       0.75900657      -0.36485988
Cl       2.98192866       2.56112506       3.01968338      -1.72121145       0.69504944      -0.85022013
Na       2.92060647       0.13238590       2.43969998      -0.62276892      -0.21914010      -0.26434730
Na       5.48664917       5.44951065       2.63537243       0.46325047      -0.02882206       0.56734717
Na       3.21643133       3.00433814       5.58832421      -1.04953234      -0.72255103      -0.01431487
Na       5.56922995       2.73505952       0.14426312       0.71234609       3.40070945       0.10477257
8
Lattice="5.63 0.0 0.0 0.0 5.63 0.0 0.0 0.0 5.63" Properties=species:S:1:pos:R:3:dft_forces:R:3 dft_energy=-19.45790925 dft_stress="-0.036151290312224735 0.00014952646723828664 -0.003432111078524109 0.00014952646723828664 0.1722358223166503 -0.0007958478943247354 -0.003432111078524109 -0.0007958478943247354 0.18431667010129427" free_dft_energy=-19.45790925 pbc="T T T"
Cl       0.27218066       5.44390756       0.12496950      -3.61567221       1.15746769       0.63038910
Cl       2.72276444       5.29506224       5.56000013       3.48115432       0.35978109      -0.69889829
Cl       5.55699286       3.04618210       2.94469065       2.70650297       0.23806799       0.58677121
Cl       3.02973619       2.77135556       2.71726376      -2.77944970      -0.45225109      -0.39592273
Na       3.16051766       0.29008935       2.59887443      -1.34430438      -0.74798514      -0.11149173
Na       5.43654104       0.18123285       2.84618052       1.34794977      -0.14907057       0.30658618
Na       3.34678407       2.87338541       0.10552686      -1.18797011      -0.28697908      -0.33689665
Na       0.00099505       2.84027786       0.13872635       1.39178935      -0.11903090       0.01946292
8
Lattice="5.63 0.0 0.0 0.0 5.63 0.0 0.0 0.0 5.63" Properties=species:S:1:pos:R:3:dft_forces:R:3 dft_energy=-20.14247882 dft_stress="-0.015383012309650102 0.010554470244083593 -0.009118281230882881 0.010554470244083593 0.14824825751820134 0.0008704252714058828 -0.009118281230882881 0.0008704252714058828 0.17677370351252603" free_dft_energy=-20.14247882 pbc="T T T"
Cl       0.03695053       5.51717846       0.00135283      -2.72795126      -0.34272636      -0.40047578
Cl       2.57517776       5.60667277       0.22891631       2.62992486       0.87334338       0.42238717
Cl       5.50011506       2.74100502       3.09155624       2.79802459      -1.11945174      -0.11591618
Cl       3.01292687       3.18183391       2.84050328      -2.41520982      -1.71047330      -0.36219717
Na       2.72562927       5.35659785       2.99127857      -0.12750501       2.54314301       0.28711070
Na       5.62996194       5.47803735       2.85637707      -0.21853416       0.05226349      -0.11175885
Na       2.76515153       3.02275961       0.18826011       0.24549906      -0.16224219      -0.11178941
Na       0.05345629       2.67049372       5.60966551      -0.18424827      -0.13385629       0.39263952
8
Lattice="5.63 0.0 0.0 0.0 5.63 0.0 0.0 0.0 5.63" Properties=species:S:1:pos:R:3:dft_forces:R:3 dft_energy=-19.52058683 dft_stress="-0.017119005916029904 0.010551354620041153 -0.004927886100383672 0.010551354620041153 0.18287730751788037 0.0031541358764033715 -0.004927886100383672 0.0031541358764033715 0.1789126344864962" free_dft_energy=-19.52058683 pbc="T T T"
Cl       5.48095239       5.23561647       5.53921293       0.33762439       0.09983679       0.80422924
Cl       2.70961034       5.51959075       5.56194811      -0.39982528       0.87689463       0.20845056
Cl       0.13490921       2.96800690       3.06954598      -0.70098540      -1.45079458      -0.30744046
Cl       2.86151405       3.05808308       2.95947819       0.87146606      -0.15035495      -0.70413933
Na       3.75720882       0.33011415       2.57916594      -2.81033672       0.38242946      -0.44700644
Na       0.01512899       5.48589351       2.99018049       2.82400217      -0.40978121       0.27020541
Na       2.94218727       2.49678334       5.55763384      -1.35329513       0.53307411       0.01637624
Na       5.25362977       2.48697441       5.62442433       1.23134992       0.11869576       0.15932478
8
Lattice="5.63 0.0 0.0 0.0 5.63 0.0 0.0 0.0 5.63" Properties=species:S:1:pos:R:3:dft_forces:R:3 dft_energy=-19.26252668 dft_stress="-0.01977452507338447 -0.0059402374659841255 0.005832674736780181 -0.0059402374659841255 0.17005081536139216 -0.004887440328576289 0.005832674736780181 -0.004887440328576289 0.15968586364233134" free_dft_energy=-19.26252668 pbc="T T T"
Cl       5.57697931       0.28551092       0.37132766      -2.26892225       0.07886167      -0.15832782
Cl       2.53246858       0.29608508       5.58448173       1.99749997      -1.00877954      -0.57075433
Cl       5.52310218       2.68934837       2.94082746       1.41554350      -0.10037385       0.61315267
Cl       2.87283187       2.82173466       2.94712456      -1.45667001       0.93507965      -0.26110457
Na       2.21666595       0.26966940       2.92459831       2.68436276       0.65865916       0.20744335
Na       0.30423805       5.42141756       2.67674910      -2.67173427      -0.45573544       1.02862659
Na       2.67323440       2.76030928       0.18240873       1.14907590       0.18839398      -0.29905407
Na       0.39037711       3.39365472       0.59355300      -0.84915559      -0.29610562      -0.55998181
8
Lattice="5.63 0.0 0.0 0.0 5.63 0.0 0.0 0.0 5.63" Properties=species:S:1:pos:R:3:dft_forces:R:3 dft_energy=-20.52483849 dft_stress="0.0014259754139086239 -0.012809398572894218 0.002501857702803399 -0.012809398572894218 0.13179226847946776 -0.0016157953788561487 0.002501857702803399 -0.0016157953788561487 0.18086473075940168" free_dft_energy=-20.52483849 pbc="T T T"
Cl       0.30481203       5.27307269       0.37970617      -0.01128815       2.11185264       0.68894691
Cl       3.02944107       0.12702338       0.08041999       0.83482847       0.57597387      -0.85763804
Cl       0.24239374       2.68249868       2.84071328      -1.64333506       1.16164207       0.25127050
Cl       2.86526509       2.66536958       2.81571687       1.97250477       0.34545485       0.34577318
Na       2.57682690       0.05688529       2.69221415       0.15966660      -0.32903126       0.01517697
Na       5.53892450       0.36713455       3.01680814      -0.59395028      -1.08113445       0.23912444
Na       2.72557398       2.96139453       0.23930202      -0.12136400      -0.05704633      -0.20805539
Na       5.52462751       3.17419237       5.62294206      -0.59706235      -2.72771139      -0.47459858
8
Lattice="5.63 0.0 0.0 0.0 5.63 0.0 0.0 0.0 5.63" Properties=species:S:1:pos:R:3:dft_forces:R:3 dft_energy=-19.28214238 dft_stress="-0.03058606016578319 -0.00663751546611009 -0.01311028730996697 -0.00663751546611009 0.16390908284435754 -0.004435547740330627 -0.01311028730996697 -0.004435547740330627 0.16150182208425848" free_dft_energy=-19.28214238 pbc="T T T"
Cl       0.34737224       5.58851732       5.53792540      -5.23547572      -1.26778722      -0.24424079
Cl       2.69400708       0.16089876       0.07264203       5.26635923       0.61292342      -0.07400744
Cl       0.25533728       3.06683114       3.06191925       2.65608532      -0.44102462       0.95380555
Cl       3.39227014       2.70842162       2.50866843      -2.35057936      -0.56013408       0.11678265
Na       2.32534989       5.44266344       2.54078212       1.44798174      -0.11931655       0.39590535
Na       0.09432727       5.44168900       2.77180354      -1.69765466       0.92259570       0.16083275
Na       3.27930723       2.90375864       0.14475800      -0.37203065       0.29641279      -1.34069125
Na       0.25979810       2.36842406       0.39775421       0.28531411       0.55633057       0.03161319
8
Lattice="5.63 0.0 0.0 0.0 5.63 0.0 0.0 0.0 5.63" Properties=species:S:1:pos:R:3:dft_forces:R:3 dft_energy=-15.48556979 dft_stress="-0.003146348994583956 -0.008436644209207526 -0.0036766292264698614 -0.008436644209207526 -0.04723104211957304 -0.00665506825625501 -0.0036766292264698614 -0.00665506825625501 0.17467894189484356" free_dft_energy=-15.48556979 pbc="T T T"
Cl       5.31197808       0.31130376       0.04977883       4.00266861      -2.29438246      -0.22290491
Cl       2.98951486       5.36647417       0.09036195      -4.65347547      -0.73982062       0.26498710
Cl       0.19778787       3.33602531       2.97526144      -0.31484476     -15.49146433      -0.63378663
Cl       2.84967449       2.75168373       3.12327943       1.06096206      -0.64460442      -0.97203875
Na       2.67177956       0.23114331       2.84295272       0.35349407      -0.28280767      -0.03082374
Na       0.10517966       5.07714233       3.01467020      -1.26469880      15.92510392       0.44342001
Na       3.22629689       2.94070923       5.46652603      -0.67471287      -0.36721148       0.77648923
Na       5.57025399       2.38290859       0.18291065       1.49060715       3.89518706       0.37465770
8
Lattice="5.63 0.0 0.0 0.0 5.63 0.0 0.0 0.0 5.63" Properties=species:S:1:pos:R:3:dft_forces:R:3 dft_energy=-16.26602729 dft_stress="-0.005998232607589427 0.0017498730187437772 -0.04411974650753811 0.0017498730187437772 0.11624658615789983 0.008622624497604953 -0.04411974650753811 0.008622624497604953 0.03189789891234444" free_dft_energy=-16.26602729 pbc="T T T"
Cl       0.30689006       5.23233221       5.05210831       0.68479017       0.16678135      13.07119037
Cl       2.76893906       5.29675242       5.54039990       3.29192204       0.49594079       1.19391509
Cl       5.41822918       3.04150791       2.96835118      -0.79437504      -1.37417616      -0.47911003
Cl       2.52963681       2.70634500       2.74134175       0.30810926       2.66682138      -0.20237111
Na       2.69430682       0.59926857       2.98641087       0.26589983      -3.51313055       0.28216636
Na       5.50545579       5.37826936       3.33204344      -3.44313212       1.82419650     -13.30620611
Na       2.44006294       2.58633868       0.27941701       0.18792064      -0.00709426      -0.70353339
Na       5.37470765       2.95852790       0.15834510      -0.50113480      -0.25933904       0.14394883
