64
Lattice="13.29106810939046 0.0 0.0 0.0 12.174675844923703 0.0 0.0 0.0 11.579089939193235" Properties=species:S:1:pos:R:3:momenta:R:3:masses:R:1:forces:R:3:mace_mp_forces:R:3 units="_JSON {\"energy\": \"eV\", \"forces\": \"ev/Ang\", \"stress\": \"ev/Ang^3\", \"time\": \"fs\", \"real_time\": \"s\", \"temperature\": \"K\", \"pressure\": \"GPa\", \"density\": \"g/cm^3\", \"momenta\": \"(eV*u)^0.5\"}" time=10000.000000001242 step=10000 density=1.6573561493539288 model_path=small arch=mace_mp mace_mp_energy=-201.61531328339828 mace_mp_stress="0.0031128874537751953 0.003540232209521423 0.0032414523547559843 -0.0002954303968976185 -0.0012421376815220794 -0.0009676415627283393" system_name=NaCl temperature=1030.0 pressure=0.000101325 energy=-201.61531328339828 free_energy=-201.61531328339828 stress="0.0031128874537751953 -0.0009676415627283393 -0.0012421376815220794 -0.0009676415627283393 0.003540232209521423 -0.0002954303968976185 -0.0012421376815220794 -0.0002954303968976185 0.0032414523547559843" pbc="T T T"
Na      -0.17312041      -0.13287524      -0.18906637      -2.24908647       0.48884932       1.99481957      22.98976928       0.14439452      -0.03802877       0.21119258       0.14439452      -0.03802877       0.21119258
Cl       2.82184535      -0.18616280       0.35870323       1.19990954       0.19737583      -3.53683633      35.45000000      -0.06818313      -0.14039883      -0.02627063      -0.06818313      -0.14039883      -0.02627063
Na       0.88574805       3.21124418       2.92627321       0.66303247      -1.64172292      -2.73755793      22.98976928      -0.12241881       0.14023742       0.05869700      -0.12241881       0.14023742       0.05869700
Cl       3.77308782       3.14279893       3.17963459       1.15454654      -0.84358254       2.22225400      35.45000000      -0.59379781      -0.50449184      -0.20627251      -0.59379781      -0.50449184      -0.20627251
Na       3.33523619      -1.02822965       3.09549298       0.21224464      -0.70792057      -1.47270877      22.98976928       0.26848896       0.68863051      -0.36202931       0.26848896       0.68863051      -0.36202931
Cl       0.00055163       0.50540804       3.10354628       1.43301717      -0.95547020       2.18351627      35.45000000       0.00277701      -0.08440846      -0.09765838       0.00277701      -0.08440846      -0.09765838
Na       2.82268649       2.87573663       0.42870369       2.14767221       0.01603028      -0.46803116      22.98976928       0.97480196      -0.26470478       0.04520245       0.97480196      -0.26470478       0.04520245
Cl       0.43192488       3.30946916       0.26490340      -2.82260265       0.71683833      -0.56983817      35.45000000      -0.83511478      -0.03609204      -0.29209650      -0.83511478      -0.03609204      -0.29209650
Na       0.58484049       0.45305128       5.67081767       1.00475509       1.50786666       1.01961185      22.98976928      -0.72773819      -0.01882303       0.36058998      -0.72773819      -0.01882303       0.36058998
Cl       3.05076650       0.45378589       5.46142451       0.65149448      -1.87106561       0.76136401      35.45000000       0.19318375      -0.61036600       0.41008240       0.19318375      -0.61036600       0.41008240
Na       0.38325198       3.72551260       9.14335501      -0.76875820       0.48574121       0.80719648      22.98976928      -0.54665448      -1.00060239       0.21718371      -0.54665448      -1.00060239       0.21718371
Cl       3.37250204       2.95494988       8.65349637      -1.65394198      -1.18349446       2.26084882      35.45000000      -0.20408122       0.66059214       0.11215608      -0.20408122       0.66059214       0.11215608
Na       3.32811186       0.46383929       8.61374521      -0.80166847      -0.86991341      -1.46884617      22.98976928      -0.07587117      -0.27232462       0.23585140      -0.07587117      -0.27232462       0.23585140
Cl       0.42635718       0.76734084       9.06933625       3.23308485      -2.93642148       1.91564151      35.45000000       0.01000084       0.00250921      -0.70746343       0.01000084       0.00250921      -0.70746343
Na       2.30879269       3.80302037       6.30085799      -0.49171962      -3.08076103       0.35991249      22.98976928       0.29160184      -0.02187771      -0.41654386       0.29160184      -0.02187771      -0.41654386
Cl      -0.93148576       4.14014217       4.83953095       1.23831719       2.60195475       2.59371739      35.45000000       0.59820278      -0.82979326       0.70736340       0.59820278      -0.82979326       0.70736340
Na       0.56197203       6.47319462      -0.66789432      -1.63241624      -1.91096867       0.80502690      22.98976928      -0.28445667      -0.16506837       1.10024717      -0.28445667      -0.16506837       1.10024717
Cl       3.15927872       5.75907460       0.33123401       1.20111754      -1.61948592       2.06431560      35.45000000       0.20431055       0.07844843      -0.90189074       0.20431055       0.07844843      -0.90189074
Na      -0.14156023      10.00066296       3.30767771       1.43835598       1.96805795      -1.50753084      22.98976928      -0.14133313       0.37577552      -0.40584298      -0.14133313       0.37577552      -0.40584298
Cl       3.38332118       8.56754808       2.80582440      -0.93231071       0.59920747       2.86956003      35.45000000      -0.26621389       0.18509552       0.26965835      -0.26621389       0.18509552       0.26965835
Na       3.52528613       5.65650441       2.95994479      -1.25401322      -0.61864087       0.28966930      22.98976928       0.11719328       0.39454691      -0.15444200       0.11719328       0.39454691      -0.15444200
Cl       0.47212235       6.05440447       2.52915266       2.23063092      -0.00094935      -0.17747472      35.45000000       0.29533669       0.69195306       0.14299579       0.29533669       0.69195306       0.14299579
Na       3.32224751       9.04930332       0.13551455      -1.94994671       0.03240542      -0.51975968      22.98976928      -0.02793147       0.02620017      -0.15920041      -0.02793147       0.02620017      -0.15920041
Cl       0.06260422       8.92510435      -0.45811829       0.31247015       0.09999437      -0.30404983      35.45000000      -0.13188528       0.65116902       0.41650471      -0.13188528       0.65116902       0.41650471
Na       0.47497845       7.61881590       4.84742881       0.84511926       2.16184245      -0.47495928      22.98976928       0.31669934      -1.35609667      -0.12719282       0.31669934      -1.35609667      -0.12719282
Cl       3.66166335       5.89288044       5.56403334      -3.39945297      -0.64586839      -1.23594773      35.45000000      -0.14467280       0.22577401       0.46916174      -0.14467280       0.22577401       0.46916174
Na      -1.10429807       9.04275836       8.79512191      -0.29946813       2.06264309       0.71677818      22.98976928       1.16759877       0.12005744      -0.00272889       1.16759877       0.12005744      -0.00272889
Cl       3.23037622       8.65591796       8.72792388       3.65769349       0.13590507      -0.97415470      35.45000000       0.03672590       0.19166724       0.10378908       0.03672590       0.19166724       0.10378908
Na       2.79205429       5.84888453       9.13973058      -0.33542143      -0.09830626      -1.53447041      22.98976928       1.33651596       0.23686981      -0.11436988       1.33651596       0.23686981      -0.11436988
Cl       0.45784331       6.13692121       8.41388825       2.17941029       0.43138684      -2.24949271      35.45000000      -0.40154894      -0.02372321      -0.57918475      -0.40154894      -0.02372321      -0.57918475
Na       3.06538611       9.96768958       6.47898961      -1.29057863      -0.18135773       3.59085561      22.98976928      -0.10151343      -0.18512603      -0.05603845      -0.10151343      -0.18512603      -0.05603845
Cl      -0.01452929       9.60993289       6.13598755      -1.73317741       1.42521374       2.09104632      35.45000000       0.21339639       0.57452215       0.12221583       0.21339639       0.57452215       0.12221583
Na       7.27628622      -0.98284820      -0.50375063      -1.42839762       0.24550743      -1.95684552      22.98976928       0.07363304       0.36776779       0.23365136       0.07363304       0.36776779       0.23365136
Cl       9.88830188       0.18811061      -0.28976733      -1.30573379      -2.09490474      -2.83886511      35.45000000       0.40055957      -0.20231150       0.06989757       0.40055957      -0.20231150       0.06989757
Na       6.40637381       2.67601853       2.86365141       0.93171638      -0.26770019      -1.38910437      22.98976928       0.08209285       0.13948641      -0.10868856       0.08209285       0.13948641      -0.10868856
Cl       9.23358439       2.85830111       2.57953765       3.57389598      -0.62553860      -1.20626394      35.45000000      -0.14938162       0.44759759       0.01688539      -0.14938162       0.44759759       0.01688539
Na      10.54786999       0.99468375       3.33918990      -2.24331378       1.08319533       0.96074019      22.98976928       0.47824413      -0.71198107       0.33995688       0.47824413      -0.71198107       0.33995688
Cl       6.03644263      -0.88813491       2.62241149      -0.24913150       1.63946856      -3.30577848      35.45000000       0.34732766      -0.16392454       0.45408862       0.34732766      -0.16392454       0.45408862
Na      10.06545262       2.94419279       0.07193819       2.08628056      -4.52612903       0.70928743      22.98976928      -0.19158102       0.08135674      -0.10351391      -0.19158102       0.08135674      -0.10351391
Cl       6.68647210       2.26825046       0.09170711      -4.65216543       0.38137682      -0.17022464      35.45000000      -0.18034229       0.36270473      -0.55494794      -0.18034229       0.36270473      -0.55494794
Na       7.49974159       0.03511314       4.99037680      -1.04714669       0.58365068      -1.30087703      22.98976928      -0.10508791      -0.15212721       0.09165948      -0.10508791      -0.15212721       0.09165948
Cl      10.00625801       0.49305067       6.24331972      -1.33636375       2.58838428       2.15724730      35.45000000       0.21018451      -0.42421232      -0.88916441       0.21018451      -0.42421232      -0.88916441
Na       6.09625927       2.85825173       8.69836225       2.76857571       1.42181378       0.16857381      22.98976928       0.20084478      -0.19543586      -0.02032132       0.20084478      -0.19543586      -0.02032132
Cl      10.54564694       3.37395844       8.69192884      -0.86462176      -0.72392364      -2.73060304      35.45000000      -0.07338053       0.14209989       0.45270667      -0.07338053       0.14209989       0.45270667
Na      10.05288116       0.60394273       8.71385303       4.05984360      -0.81180057       1.05214265      22.98976928      -0.06889602       0.22390239       0.20638394      -0.06889602       0.22390239       0.20638394
Cl       6.60088666      -0.55588177       8.47991951       1.16524671      -0.80175329       4.77917238      35.45000000       0.00819651       1.32927563       0.19266650       0.00819651       1.32927563       0.19266650
Na      10.04765260       4.06452037       6.27529834       1.80389829       0.42711019      -0.26514069      22.98976928       0.02473702      -0.08108351      -0.54828169       0.02473702      -0.08108351      -0.54828169
Cl       6.81497132       2.17800240       6.09009418      -1.97777976      -0.00975158       0.28471323      35.45000000      -0.09770395       0.69962859      -0.07728542      -0.09770395       0.69962859      -0.07728542
Na       6.63485515       5.54606263       0.10459181       0.56564308       0.01444080       0.77411744      22.98976928      -0.06799662       0.00048455      -0.46021847      -0.06799662       0.00048455      -0.46021847
Cl      10.19864614       6.00018374       0.02738469      -1.82316491      -0.47364505      -0.45313048      35.45000000      -0.04973238       0.04435785       0.14857742      -0.04973238       0.04435785       0.14857742
Na       5.93525936       8.50577505       3.71015161      -1.70322084       0.74783074       0.00975784      22.98976928       0.03340234      -0.02133817      -0.39943990       0.03340234      -0.02133817      -0.39943990
Cl      10.60947794      10.04697719       3.09424698       2.90892775      -0.31603791       0.50320711      35.45000000      -0.19108485      -0.02011782       0.15654667      -0.19108485      -0.02011782       0.15654667
Na      11.35688723       5.56099653       3.04234315       1.28371289       2.70213644      -1.41799846      22.98976928      -0.60335472      -0.17483850      -0.49874353      -0.60335472      -0.17483850      -0.49874353
Cl       6.50646946       5.71757508       2.52547631      -0.39255273      -2.17419708       2.72620604      35.45000000      -0.18178255       0.44175621       0.78800608      -0.18178255       0.44175621       0.78800608
Na       9.97259802       8.54704871       1.14086424      -1.17340389       1.80577600      -3.10070798      22.98976928      -0.15998930      -0.28260114      -0.36169853      -0.15998930      -0.28260114      -0.36169853
Cl       6.81645197       8.58017303      -0.66853364       1.88101515       3.87016028      -1.19839128      35.45000000      -0.05213162      -0.04589117       0.37397366      -0.05213162      -0.04589117       0.37397366
Na       6.54234602       6.02706625       5.91592091      -0.49153514       0.40150493      -0.06260566      22.98976928      -0.03026079      -0.15800772      -0.19775517      -0.03026079      -0.15800772      -0.19775517
Cl       9.59521272       6.35000555       4.66781862       0.27316377       1.00443395      -3.03787941      35.45000000      -0.42577317       0.35690125       0.59989936      -0.42577317       0.35690125       0.59989936
Na       5.75886593       9.45664945       8.59781890       0.20912269      -1.61268007       2.07828587      22.98976928      -0.08584001      -1.37054338       0.18440298      -0.08584001      -1.37054338       0.18440298
Cl       9.93284060       8.59092286       8.33916220      -0.89321558       0.58598118      -0.80855939      35.45000000      -0.82575838      -0.42853757       0.36909402      -0.82575838      -0.42853757       0.36909402
Na       9.01851045       5.92484498       9.13443506      -0.59549698      -2.28215329       2.40258907      22.98976928       0.32780311       0.30148374       0.12252178       0.32780311       0.30148374       0.12252178
Cl       6.52163698       5.57145742       8.52846032      -0.38268657      -1.27252461       0.42353830      35.45000000       0.01151786      -0.29442785       0.27179835       0.01151786      -0.29442785       0.27179835
Na       9.41643088       9.21325322       6.04477422       0.85263346       0.49397888      -1.28684027      22.98976928      -0.04466859       0.02620478      -0.65276826      -0.04466859       0.02620478      -0.65276826
Cl       6.72036666       8.74739496       6.23629323      -4.99205425       2.23060598      -1.81423881      35.45000000      -0.11161036       0.07024863      -0.57355572      -0.11161036       0.07024863      -0.57355572
