64
Lattice="11.26 0.0 0.0 0.0 11.26 0.0 0.0 0.0 11.26" Properties=species:S:1:pos:R:3:momenta:R:3:masses:R:1 time_fs=0.0 step=0 density=2.175165919296546 energy=-214.39944931730994 free_energy=-214.39944931730994 stress="-0.00880774722797475 2.1090013176294867e-05 0.00024989316589839496 2.1090013176294867e-05 -0.010285145951248858 0.00022134641205475642 0.00024989316589839496 0.00022134641205475642 -0.008855086704617732" pbc="T T T"
Na       0.12388246      -0.04296111      -0.03653741       1.08561223       0.17226441      -1.56179583      22.98976928
Cl       2.73367476       0.02187091      -0.22327146      -0.47280900      -0.11629588      -0.39655479      35.45000000
Na      -0.04339870       2.53381205       2.63081518       0.34281886      -0.15938561      -0.99842118      22.98976928
Cl       2.72494962       2.86474315       2.90624841       0.00759008       0.10566690       1.33116260      35.45000000
Na       2.75573533       0.05989314       2.89300667       0.17813928      -0.55657647      -1.04433896      22.98976928
Cl      -0.00691288      -0.13072568       2.94877305       0.01816136      -0.38344944      -0.28368578      35.45000000
Na       2.78693954       2.76626941      -0.02425524      -0.21825902      -0.62527775       0.26792344      22.98976928
Cl      -0.05570594       2.77656162      -0.10517705      -0.69017663       0.46393364       0.16105995      35.45000000
Na       0.05022826       0.13484020       5.70360132      -1.03533886      -0.32439520       1.27905770      22.98976928
Cl       2.91575319       0.02775744       5.41117858      -0.63084012      -0.44931101       0.28194537      35.45000000
Na       0.02046255       2.61397069       8.35928074       0.03396285       0.22692502      -0.42522644      22.98976928
Cl       2.81683611       2.68136638       8.50402898       0.08127931       0.16620170      -0.59408954      35.45000000
Na       2.78144931      -0.07501744       8.27794834      -0.60356884       1.62019526      -1.46380461      22.98976928
Cl      -0.01726344      -0.01436760       8.48023379       0.21237297      -0.95431494       2.30344641      35.45000000
Na       2.74616338       2.80373673       5.53687187      -0.40256778       0.45274092       0.83501958      22.98976928
Cl      -0.05156092       2.89356925       5.66675471      -0.35668803       1.67627449      -0.82726101      35.45000000
Na       0.07190516       5.60310030       0.14160141      -0.02860180      -0.01057742      -0.22894650      22.98976928
Cl       2.91603575       5.51935201       0.06934613       0.21903082      -0.13124388       0.19628502      35.45000000
Na       0.03514459       8.33890889       2.97944079       0.72092221       0.07391066      -0.03921478      22.98976928
Cl       2.90486462       8.57019160       2.79130125      -0.29274460      -1.16224953      -1.41655275      35.45000000
Na       3.01657357       5.79057394       2.95934704      -1.42215676       0.93054995       0.83061342      22.98976928
Cl      -0.19603983       5.73256464       2.81507510       0.48021708      -0.70345582       0.24446152      35.45000000
Na       2.98343920       8.60175398       0.10966739      -0.50936211      -0.82208792      -1.57606716      22.98976928
Cl       0.20590855       8.44385057       0.02922320      -0.18240436       1.98546805      -0.30266931      35.45000000
Na      -0.14828996       5.79107069       5.60480025       0.04849500      -0.83450223      -1.12233570      22.98976928
Cl       2.82046058       5.67970493       5.72654005       0.95165715      -0.83227030       0.45968559      35.45000000
Na      -0.13017688       8.58431742       8.46916885       0.72899193      -0.05923401       1.67623149      22.98976928
Cl       2.81024046       8.54131114       8.54415273       0.39021484       0.83243125      -0.04754255      35.45000000
Na       2.85421998       5.49666361       8.41111754      -0.51836832      -0.01629672      -2.84306291      22.98976928
Cl       0.05314929       5.58100952       8.54600708       0.42562213       0.19991340       1.05680479      35.45000000
Na       2.77187795       8.44016072       5.54811174       0.64859535      -1.76127037       0.22749788      22.98976928
Cl       0.03918073       8.55116099       5.69068050      -1.42643089      -1.43936936       0.09632022      35.45000000
Na       5.54865967      -0.00774036      -0.07201037       1.07827672       1.09293012      -0.65809190      22.98976928
Cl       8.54500432      -0.01201614       0.04410883      -0.11540714       0.61208954       2.74396836      35.45000000
Na       5.57523120       2.88440389       2.70061312      -1.25291785       0.50455439       0.60677157      22.98976928
Cl       8.63224904       2.77661051       2.73212257       0.55057963      -0.23294431       0.39304516      35.45000000
Na       8.38377698       0.17576772       2.88139830      -1.08808156       0.90519461       0.67430582      22.98976928
Cl       5.53166003      -0.03283813       2.95912555      -0.59872058      -0.21719321      -0.20580933      35.45000000
Na       8.54311986       2.81468714      -0.05703608      -0.21424328      -0.15219886       1.95919869      22.98976928
Cl       5.65920648       2.74932849      -0.04453243       0.81903912       0.23425496       0.42817073      35.45000000
Na       5.71000657       0.17105503       5.60484844       0.84214104       0.63173925       1.32084171      22.98976928
Cl       8.54144414       0.15360797       5.57505944       0.66177932       0.75860625       0.79789097      35.45000000
Na       5.53584888       2.74869645       8.47717873      -1.05492607      -0.44440033       0.00839366      22.98976928
Cl       8.45683312       2.62383904       8.46456582       0.19472437      -1.16911428      -2.06637665      35.45000000
Na       8.37478942      -0.08999019       8.42140530      -0.22854379       1.26687069      -0.26979807      22.98976928
Cl       5.72643078      -0.06639619       8.53968792       1.11261725       0.19337421      -0.62393473      35.45000000
Na       8.48063227       2.99617042       5.67899922      -0.37705778      -1.09542193      -1.07171912      22.98976928
Cl       5.65312205       2.75831715       5.62747528       1.57388468      -0.36736591      -0.70580478      35.45000000
Na       5.69560227       5.52830240      -0.04598972      -0.24562318       1.02025177       0.28038720      22.98976928
Cl       8.39951278       5.47486568      -0.13143216       0.75769466       0.57814752      -1.90605254      35.45000000
Na       5.61175139       8.64323089       2.94047370       0.64489800      -0.59155788       2.15485046      22.98976928
Cl       8.34412196       8.38526157       2.75156906      -1.26755120      -0.36155888       0.27798364      35.45000000
Na       8.35034695       5.73890178       2.60262547      -0.80838527      -0.79576292      -0.33935557      22.98976928
Cl       5.56428660       5.55637066       2.93174899       0.69674909       0.07166520      -0.40125798      35.45000000
Na       8.31641742       8.47708969      -0.10240586      -1.83501088      -1.31149247       0.56969482      22.98976928
Cl       5.72530847       8.46227402      -0.03471113       1.33680378      -0.52697544       0.35412904      35.45000000
Na       5.50543695       5.65632071       5.69914418       0.56568268       0.10044529      -0.59789482      22.98976928
Cl       8.38702426       5.62152636       5.60563057       0.18105211      -0.93649327       0.03004363      35.45000000
Na       5.63552496       8.46945979       8.32242172      -0.19113142      -0.06258750       0.26176208      22.98976928
Cl       8.36394893       8.54917996       8.50370950       0.58337620       0.42390959      -0.71750661      35.45000000
Na       8.56389187       5.79359173       8.57367718      -0.32847460      -0.00686693       0.55421052      22.98976928
Cl       5.57271668       5.57039185       8.45619869       0.22428538       0.06846337       1.30471021      35.45000000
Na       8.42936636       8.22185098       5.58641548      -1.04137564       1.00345970      -0.30949033      22.98976928
Cl       5.52203567       8.45756538       5.56180724       1.04049983       1.24106588      -0.92321101      35.45000000
64
Lattice="11.26 0.0 0.0 0.0 11.26 0.0 0.0 0.0 11.26" Properties=species:S:1:pos:R:3:momenta:R:3:masses:R:1 time_fs=5.0 step=5 density=2.175165919296546 energy=-214.3686321210463 free_energy=-214.3686321210463 stress="-0.008881983731386595 -2.041943249568833e-06 0.00027319827559681473 -2.041943249568833e-06 -0.010069910370003874 0.00031496886009074824 0.00027319827559681473 0.00031496886009074824 -0.009000706190664839" pbc="T T T"
Na       0.14505970      -0.03947883      -0.06899540       0.88983279       0.15494119      -1.46749958      22.98976928
Cl       2.72838184       0.02084131      -0.22732380      -0.28245198      -0.03159694      -0.19123369      35.45000000
Na      -0.03511185       2.53202079       2.61058931       0.43200139      -0.01033207      -0.89198606      22.98976928
Cl       2.72507487       2.86629860       2.92342155       0.01018037       0.11934923       1.14685000      35.45000000
Na       2.75953137       0.04804120       2.86839553       0.17581372      -0.55272889      -1.25226734      22.98976928
Cl      -0.00648167      -0.13603410       2.94425424       0.04456303      -0.38115788      -0.36495416      35.45000000
Na       2.78230724       2.75341871      -0.01813949      -0.21451603      -0.57409651       0.30425768      22.98976928
Cl      -0.06407464       2.78306364      -0.10252094      -0.51647961       0.47425261       0.21854172      35.45000000
Na       0.02790067       0.12742591       5.73034642      -1.05057579      -0.36924428       1.21930609      22.98976928
Cl       2.90627082       0.02148759       5.41766198      -0.73725796      -0.45568997       0.64811736      35.45000000
Na       0.02055313       2.62084395       8.35110874      -0.02785814       0.41484712      -0.33905076      22.98976928
Cl       2.81780760       2.68392043       8.49468602       0.05628078       0.20417559      -0.75337522      35.45000000
Na       2.76917963      -0.04014128       8.24700315      -0.54339276       1.63584291      -1.42846088      22.98976928
Cl      -0.01440182      -0.02791993       8.51122264       0.19943091      -0.99438077       2.16003892      35.45000000
Na       2.73805335       2.81370430       5.55617869      -0.35580649       0.47568951       0.96811603      22.98976928
Cl      -0.05579693       2.91698134       5.65479825      -0.25326560       1.69756948      -0.89537831      35.45000000
Na       0.07152471       5.60311337       0.13543287      -0.00630027       0.01373107      -0.34695463      22.98976928
Cl       2.91899484       5.51783254       0.07223493       0.20577157      -0.08965394       0.21951167      35.45000000
Na       0.05010181       8.34220428       2.97672848       0.67614402       0.23322424      -0.21399004      22.98976928
Cl       2.90027213       8.55330899       2.77202419      -0.36670671      -1.27242960      -1.36237197      35.45000000
Na       2.98380496       5.80951679       2.97575912      -1.63720558       0.83755565       0.70101865      22.98976928
Cl      -0.18840484       5.72213147       2.81887120       0.62026677      -0.79912868       0.29837738      35.45000000
Na       2.97179806       8.58272877       0.07462710      -0.57640178      -0.95697946      -1.69862792      22.98976928
Cl       0.20227577       8.47088843       0.02521096      -0.34135183       1.91042677      -0.27349704      35.45000000
Na      -0.14605892       5.77181650       5.58164990       0.15612347      -0.96469259      -1.04137548      22.98976928
Cl       2.83280892       5.66797115       5.73208690       0.83254580      -0.86034835       0.33427059      35.45000000
Na      -0.11292234       8.58147773       8.50569981       0.88217075      -0.20877278       1.73737823      22.98976928
Cl       2.81580689       8.55198532       8.54255493       0.41417201       0.71002001      -0.18693190      35.45000000
Na       2.84235602       5.49727339       8.35215209      -0.58933484       0.07329012      -2.66280804      22.98976928
Cl       0.05871399       5.58428962       8.56000311       0.37856059       0.27236574       0.96191300      35.45000000
Na       2.78601953       8.40338700       5.55420454       0.67004208      -1.67306051       0.34055683      22.98976928
Cl       0.01885773       8.53068721       5.69225772      -1.50129924      -1.51447259       0.13268244      35.45000000
Na       5.57258826       0.01535164      -0.08486660       1.15975235       1.06339218      -0.54251291      22.98976928
Cl       8.54299593      -0.00366855       0.08234524      -0.17550969       0.59114191       2.76987530      35.45000000
Na       5.54893758       2.89391739       2.71455249      -1.20711662       0.38378036       0.69604414      22.98976928
Cl       8.63827346       2.77469828       2.73778938       0.31913421      -0.03975004       0.42657838      35.45000000
Na       8.36083662       0.19300554       2.89490560      -1.05711007       0.70508272       0.58915055      22.98976928
Cl       5.52397633      -0.03416366       2.95458892      -0.51085650       0.02487504      -0.44371360      35.45000000
Na       8.53754932       2.81003348      -0.01551909      -0.30708215      -0.28192093       1.91772611      22.98976928
Cl       5.67028551       2.75258769      -0.03797511       0.77801643       0.23848342       0.51765083      35.45000000
Na       5.72811870       0.18261285       5.63405551       0.84917012       0.44710279       1.40615908      22.98976928
Cl       8.55002480       0.16318421       5.58642023       0.57613022       0.62067840       0.83888432      35.45000000
Na       5.51483381       2.73919687       8.47678721      -0.90664341      -0.44177393      -0.04421922      22.98976928
Cl       8.45920790       2.60887303       8.43573477       0.14835454      -0.98639741      -2.08635229      35.45000000
Na       8.37117131      -0.06134538       8.41590037      -0.10678618       1.40419282      -0.24133528      22.98976928
Cl       5.74066849      -0.06341240       8.52983064       0.93772456       0.23670321      -0.79758441      35.45000000
Na       8.47218182       2.97095267       5.65592136      -0.41117170      -1.25859652      -1.08683029      22.98976928
Cl       5.67449322       2.75466870       5.61758642       1.50525819      -0.15658734      -0.72010667      35.45000000
Na       5.68931805       5.55070152      -0.03959630      -0.34099279       1.07376390       0.31819647      22.98976928
Cl       8.41023100       5.48415282      -0.15678079       0.78730499       0.75766900      -1.74222148      35.45000000
Na       5.62603095       8.62870144       2.98455754       0.68672498      -0.76396866       1.95958518      22.98976928
Cl       8.32694922       8.38094786       2.75580037      -1.20715111      -0.26461637       0.33310409      35.45000000
Na       8.33318400       5.72045937       2.59651195      -0.79270917      -0.92730298      -0.23233954      22.98976928
Cl       5.57512032       5.55788227       2.92557858       0.85688125       0.14784995      -0.48791518      35.45000000
Na       8.27952561       8.44928277      -0.08853472      -1.60789279      -1.28640005       0.72363296      22.98976928
Cl       5.74269105       8.45473853      -0.02948773       1.15973935      -0.55738150       0.39812891      35.45000000
Na       5.51880912       5.65783448       5.68637528       0.68873174       0.04081234      -0.59402995      22.98976928
Cl       8.38932516       5.60910240       5.60658559       0.14879007      -0.85248749       0.10717366      35.45000000
Na       5.63032099       8.46760330       8.32900808      -0.29227198      -0.11084331       0.35465336      22.98976928
Cl       8.37250011       8.55375690       8.49259667       0.64808352       0.24099527      -0.88243576      35.45000000
Na       8.55628954       5.79173765       8.58339427      -0.38092782      -0.16479071       0.34615493      22.98976928
Cl       5.57650967       5.57174823       8.47390877       0.31890441       0.12683545       1.24553416      35.45000000
Na       8.40687319       8.24589390       5.57957182      -1.05928231       1.23929673      -0.32921139      22.98976928
Cl       5.53724648       8.47471925       5.55022000       1.15110792       1.23164637      -0.73759803      35.45000000
64
Lattice="11.26 0.0 0.0 0.0 11.26 0.0 0.0 0.0 11.26" Properties=species:S:1:pos:R:3:momenta:R:3:masses:R:1 time_fs=10.0 step=10 density=2.175165919296546 energy=-214.29230203081755 free_energy=-214.29230203081755 stress="-0.008999634891374127 -2.9241441050221976e-05 0.0002759641069032513 -2.9241441050221976e-05 -0.009854555391129824 0.0003837328842593483 0.0002759641069032513 0.0003837328842593483 -0.009329594495417856" pbc="T T T"
Na       0.16166752      -0.03628548      -0.09887596       0.65987967       0.14572105      -1.32028397      22.98976928
Cl       2.72604632       0.02100425      -0.22864013      -0.04760516       0.05508974      -0.00165934      35.45000000
Na      -0.02499596       2.53329372       2.59282498       0.51313961       0.12750193      -0.76785502      22.98976928
Cl       2.72522292       2.86805768       2.93801289       0.01078429       0.13471446       0.95954499      35.45000000
Na       2.76319797       0.03628444       2.83980188       0.16628511      -0.54779137      -1.41645107      22.98976928
Cl      -0.00566772      -0.14123921       2.93874741       0.07329757      -0.36809486      -0.42668525      35.45000000
Na       2.77781079       2.74187369      -0.01127390      -0.20540352      -0.50342964       0.33789460      22.98976928
Cl      -0.06999651       2.78968927      -0.09921756      -0.33818289       0.48157827       0.25441216      35.45000000
Na       0.00551238       0.11907534       5.75550554      -1.04075918      -0.41239710       1.13145205      22.98976928
Cl       2.89534873       0.01513684       5.42896281      -0.83829426      -0.46076027       0.97510938      35.45000000
Na       0.01919144       2.63161873       8.34481536      -0.10147826       0.59156965      -0.24979345      22.98976928
Cl       2.81833104       2.68707425       8.48319661       0.01677631       0.25349370      -0.90304340      35.45000000
Na       2.75828677      -0.00546714       8.21710526      -0.47522234       1.60137159      -1.36534170      22.98976928
Cl      -0.01177131      -0.04172852       8.53983110       0.17887785      -0.99127185       1.95937386      35.45000000
Na       2.73099027       2.82388289       5.57804862      -0.30476202       0.47259591       1.07383286      22.98976928
Cl      -0.05854793       2.94045350       5.64203291      -0.14294685       1.68433081      -0.94370024      35.45000000
Na       0.07165488       5.60375197       0.12685401       0.01876896       0.04754181      -0.45376022      22.98976928
Cl       2.92167606       5.51683331       0.07540491       0.17869321      -0.05584938       0.23733587      35.45000000
Na       0.06391506       8.34879930       2.97034737       0.61400582       0.38168240      -0.38152425      22.98976928
Cl       2.89479510       8.53500714       2.75364039      -0.42010953      -1.36620526      -1.28823948      35.45000000
Na       2.94693431       5.82615176       2.98912896      -1.80660973       0.71420526       0.54658932      22.98976928
Cl      -0.17889363       5.71051503       2.82320771       0.75116232      -0.87383646       0.32189782      35.45000000
Na       2.95895809       8.56095324       0.03732969      -0.62204112      -1.07907764      -1.78633822      22.98976928
Cl       0.19647370       8.49661297       0.02172798      -0.49501342       1.79644722      -0.22560536      35.45000000
Na      -0.14178690       5.75000339       5.56043303       0.23930708      -1.07285275      -0.94184258      22.98976928
Cl       2.84357950       5.65589844       5.73562022       0.72474476      -0.88107252       0.16789596      35.45000000
Na      -0.09266096       8.57532603       8.54313992       1.00964046      -0.36868885       1.76038527      22.98976928
Cl       2.82173226       8.56102051       8.53888163       0.44164913       0.59562277      -0.34692196      35.45000000
Na       2.82915884       5.49978390       8.29789119      -0.64295356       0.16126836      -2.40275638      22.98976928
Cl       0.06366359       5.58852331       8.57262237       0.33708674       0.33737861       0.85842387      35.45000000
Na       2.80031475       8.36898475       5.56256907       0.66350504      -1.53989877       0.43996146      22.98976928
Cl      -0.00227130       8.50924059       5.69437827      -1.54307713      -1.57975741       0.17384634      35.45000000
Na       5.59812831       0.03749447      -0.09509116       1.22901963       1.00461303      -0.41250391      22.98976928
Cl       8.54011814       0.00432246       0.12071069      -0.24076366       0.56087954       2.76250751      35.45000000
Na       5.52371416       2.90073025       2.73026486      -1.15271741       0.25261554       0.77249598      22.98976928
Cl       8.64110894       2.77557034       2.74398362       0.09151122       0.16721996       0.46933804      35.45000000
Na       8.33869962       0.20578557       2.90654448      -1.01308312       0.48923011       0.50018752      22.98976928
Cl       5.51749177      -0.03219528       2.94697033      -0.42595177       0.25654801      -0.65023938      35.45000000
Na       8.53002072       2.80272925       0.02456234      -0.39679120      -0.39889190       1.82661527      22.98976928
Cl       5.68070915       2.75599269      -0.03021546       0.72457336       0.25534567       0.60118899      35.45000000
Na       5.74612380       0.19006246       5.66464373       0.83214499       0.24856242       1.44986658      22.98976928
Cl       8.55738774       0.17072501       5.59821693       0.48593488       0.46448506       0.86033520      35.45000000
Na       5.49731544       2.72994448       8.47532697      -0.72854247      -0.42112040      -0.09135565      22.98976928
Cl       8.46095470       2.59663752       8.40696265       0.10441219      -0.77436158      -2.05965892      35.45000000
Na       8.37033970      -0.03043092       8.41124532       0.03142449       1.47778216      -0.19072786      22.98976928
Cl       5.75230584      -0.05985681       8.51764151       0.73853236       0.27568701      -0.95912587      35.45000000
Na       8.46318602       2.94268420       5.63263592      -0.42752063      -1.37955894      -1.09125465      22.98976928
Cl       5.69468417       2.75402359       5.60756373       1.40362596       0.06433739      -0.72501041      35.45000000
Na       5.68111079       5.57406053      -0.03239492      -0.42499409       1.10974747       0.35590639      22.98976928
Cl       8.42127336       5.49572772      -0.17943966       0.80464872       0.90755625      -1.51837373      35.45000000
Na       5.64088412       8.61078495       3.02371419       0.69809566      -0.90788086       1.69342283      22.98976928
Cl       8.31078189       8.37784384       2.76079969      -1.12231795      -0.18691338       0.38841034      35.45000000
Na       8.31669777       5.69942377       2.59272246      -0.74483934      -1.03806605      -0.12182813      22.98976928
Cl       5.58777336       5.56049563       2.91827100       0.95934214       0.23036372      -0.56523341      35.45000000
Na       8.24814173       8.42231072      -0.07170160      -1.31896875      -1.23435273       0.84639963      22.98976928
Cl       5.75712559       8.44691667      -0.02372858       0.91124079      -0.56817566       0.43111412      35.45000000
Na       5.53494146       5.65805190       5.67388464       0.82306618      -0.02065790      -0.57243805      22.98976928
Cl       8.39109427       5.59800054       5.60858190       0.10465589      -0.74698885       0.18019047      35.45000000
Na       5.62319731       8.46474091       8.33756285      -0.37003967      -0.15660360       0.44579743      22.98976928
Cl       8.38182892       8.55596929       8.47937571       0.69535172       0.08317483      -1.02099928      35.45000000
Na       8.54769729       5.78663232       8.58812250      -0.42153707      -0.31084599       0.08789597      22.98976928
Cl       5.58144010       5.57388980       8.49056384       0.38812102       0.18149874       1.15326751      35.45000000
Na       8.38431587       8.27449246       5.57243269      -1.04666654       1.42997711      -0.33677539      22.98976928
Cl       5.55381669       8.49161006       5.54166466       1.23588748       1.20366444      -0.48556905      35.45000000
64
Lattice="11.26 0.0 0.0 0.0 11.26 0.0 0.0 0.0 11.26" Properties=species:S:1:pos:R:3:momenta:R:3:masses:R:1 time_fs=15.0 step=15 density=2.175165919296546 energy=-214.1811792823214 free_energy=-214.1811792823214 stress="-0.009143265238743481 -5.4306234524725654e-05 0.0002595853404495984 -5.4306234524725654e-05 -0.009664610518005445 0.0004200850178429291 0.0002595853404495984 0.0004200850178429291 -0.009803779815618922" pbc="T T T"
Na       0.17310514      -0.03318032      -0.12504355       0.40821079       0.14705489      -1.12007662      22.98976928
Cl       2.72720975       0.02235744      -0.22744123       0.22027569       0.13945158       0.17178656      35.45000000
Na      -0.01327492       2.53739452       2.57790505       0.58148631       0.25453533      -0.62570619      22.98976928
Cl       2.72536230       2.87002957       2.95002075       0.00881968       0.14967295       0.77480100      35.45000000
Na       2.76659701       0.02463932       2.80819151       0.15103787      -0.54237151      -1.53453924      22.98976928
Cl      -0.00444363      -0.14617562       2.93250787       0.10361980      -0.34199083      -0.47117933      35.45000000
Na       2.77357256       2.73202588      -0.00372893      -0.19022979      -0.41567977       0.36767083      22.98976928
Cl      -0.07345440       2.79638881      -0.09556717      -0.16193749       0.48468368       0.26875712      35.45000000
Na      -0.01638785       0.10980417       5.77853196      -1.00473038      -0.45576156       1.02059140      22.98976928
Cl       2.88307535       0.00873053       5.44445664      -0.93202341      -0.46361076       1.25161567      35.45000000
Na       0.01615831       2.64602343       8.34044058      -0.18371277       0.75426529      -0.15985676      22.98976928
Cl       2.81821522       2.69100988       8.46972957      -0.03559093       0.31752820      -1.03789874      35.45000000
Na       2.74890901       0.02794876       8.18887280      -0.40208407       1.51861456      -1.27212407      22.98976928
Cl      -0.00948130      -0.05520110       8.56525562       0.15024642      -0.94642290       1.70052544      35.45000000
Na       2.72505423       2.83372587       5.60183142      -0.25045330       0.44456692       1.14619641      22.98976928
Cl      -0.05974342       2.96348244       5.62874413      -0.02939253       1.63288346      -0.97073802      35.45000000
Na       0.07232937       5.60519247       0.11615200       0.04424292       0.08834358      -0.54498970      22.98976928
Cl       2.92388024       5.51625758       0.07879409       0.13675601      -0.02824522       0.25122894      35.45000000
Na       0.07622492       8.35839744       2.96051923       0.53562480       0.51339178      -0.53564537      22.98976928
Cl       2.88872756       8.51554796       2.73640080      -0.45190004      -1.43867692      -1.19789549      35.45000000
Na       2.90690550       5.83981891       2.99897632      -1.93356960       0.55972912       0.37221162      22.98976928
Cl      -0.16763049       5.69802017       2.82764489       0.87316339      -0.92569938       0.31263267      35.45000000
Na       2.94534840       8.53672901      -0.00142266      -0.64897665      -1.18578389      -1.83402803      22.98976928
Cl       0.18859542       8.52050922       0.01905828      -0.64063165       1.64727140      -0.15553113      35.45000000
Na      -0.13600631       5.72617479       5.54151525       0.29737021      -1.15214176      -0.82668768      22.98976928
Cl       2.85296009       5.64359415       5.73653570       0.63258322      -0.89360815      -0.04418381      35.45000000
Na      -0.06998818       8.56568140       8.58061916       1.10730593      -0.53493620       1.74020510      22.98976928
Cl       2.82804972       8.56851782       8.53285889       0.47031780       0.48766810      -0.52565899      35.45000000
Na       2.81500775       5.50414003       8.25002695      -0.67864632       0.24579311      -2.06443632      22.98976928
Cl       0.06808355       5.59360128       8.58375799       0.30220116       0.39415040       0.74795397      35.45000000
Na       2.81420135       8.33786923       5.57290191       0.63252181      -1.36635857       0.52465635      22.98976928
Cl      -0.02376053       8.48695968       5.69707352      -1.55368927      -1.63480922       0.21474186      35.45000000
Na       5.62501054       0.05809748      -0.10242438       1.28520920       0.91986402      -0.27270405      22.98976928
Cl       8.53630816       0.01183583       0.15874006      -0.30970401       0.52228801       2.72120917      35.45000000
Na       5.49974638       2.90467520       2.74746149      -1.08949823       0.11626666       0.83477119      22.98976928
Cl       8.64085521       2.77934731       2.75083556      -0.12576583       0.37769669       0.52139413      35.45000000
Na       8.31763395       0.21385455       2.91628172      -0.95694621       0.26547716       0.41194743      22.98976928
Cl       5.51215266      -0.02714051       2.93671857      -0.34580587       0.46904133      -0.82370896      35.45000000
Na       8.52064629       2.79312699       0.06225129      -0.47913324      -0.49594209       1.69533908      22.98976928