100
Lattice="17.39529698704239 0.0 0.0 0.0 17.39529698704239 0.0 0.0 0.0 17.39529698704239" Properties=species:S:1:pos:R:3:momenta:R:3:forces:R:3 energy=-9.151337362471102e-06 pbc="F F F"
Ar       4.02397300       2.25720200       2.47652300      -0.81414155       0.02437853       0.30655285       0.00000005       0.00000002       0.00000001
Ar       4.29215000       0.74193800      -1.54218400      -0.03916643      -0.62493289       0.58679447       0.00000000      -0.00000001      -0.00000006
Ar       0.83436200       4.89482800       5.03191700      -0.57518360      -0.10977596      -0.73943948       0.00000000       0.00000000      -0.00000004
Ar      -7.89603699      -0.91476400      -0.18632500       0.27076764      -1.40925742      -0.70124264       0.00000001       0.00000004      -0.00000006
Ar      -5.92112000      -1.28000900       5.91861300      -0.53569275       0.38082139      -0.42755818      -0.00000005      -0.00000002      -0.00000002
Ar       5.88049800       4.56950900      -3.75761200       1.15467630       0.25718802       0.48712780      -0.00000003       0.00000009       0.00000003
Ar      -1.88275900       3.20825100      -0.27153200      -0.57381048       0.39916446       0.02817363      -0.00000008       0.00000002       0.00000001
Ar      -2.79694200      -1.51877600      -2.70797500       0.11035448      -0.13310663      -0.02447273      -0.00000004       0.00000005      -0.00000002
Ar      -3.91155800      -5.82834900      -3.64927100      -1.23438083      -1.06304113       0.53265343      -0.00000001      -0.00000001       0.00000004
Ar      -3.78712900       7.88682799      -1.86962000      -0.66937910       0.48831606      -0.00737018      -0.00000001      -0.00000001       0.00000002
Ar      -7.34639899      -5.68490100      -5.99610900      -0.34330400      -0.71884782       0.34497100       0.00000003       0.00000001       0.00000003
Ar       5.80257200      -1.50662800       3.10312000       0.50730061       0.57002579      -0.26560331      -0.00000000      -0.00000002       0.00000006
Ar       3.23530000      -6.17057000       7.14890999       0.66338741      -0.07838206      -0.02654425       0.00000004      -0.00000001      -0.00000003
Ar      -5.27869200      -5.02017600       3.34215200      -1.32112063      -0.06163036       0.31171292      -0.00000003       0.00000002      -0.00000001
Ar       3.55778500       3.41044700       7.24874899       0.11760273      -0.34460366       0.24591381      -0.00000002       0.00000000       0.00000001
Ar      -4.78638100       0.79503700      -8.40765799       0.14179971      -0.29791424       0.00348699      -0.00000001       0.00000000       0.00000001
Ar      -0.80082000      -1.74751000       2.15987000      -0.20058652       0.03156378      -0.59165224      -0.00000002       0.00000001      -0.00000000
Ar      -5.27506300       6.75191499       4.54326200      -0.26409409      -0.25027382       0.43968309       0.00000007      -0.00000001       0.00000003
Ar       0.80558000       5.80675900      -2.59656000       0.68644668       0.23392841      -0.19797755       0.00000000       0.00000000      -0.00000001
Ar      -4.44676600       5.28176700       0.22822300       0.18458737       0.57824231      -0.01465231       0.00000002      -0.00000002      -0.00000004
Ar      -4.21458300       4.14248100      -3.33844300       0.63196092       0.84498149      -0.49551808       0.00000003      -0.00000004      -0.00000001
Ar       1.96905400       2.42187800      -4.22301000      -0.21884538       0.38662361       0.49465795      -0.00000003      -0.00000011      -0.00000005
Ar      -7.59017199      -5.10329400       0.12681000      -0.01067008       0.49171112       0.90531312      -0.00000004       0.00000000       0.00000003
Ar       3.48245200       7.26389299       7.05095599      -0.05863532      -0.14841200      -0.54191494      -0.00000002       0.00000001      -0.00000000
Ar       2.40759000      -8.31666099       0.63166700      -0.93996581       0.51293794      -0.11571035      -0.00000001       0.00000001      -0.00000003
Ar       0.97800600      -7.55076899       4.11357000       0.48745891      -0.88850027       0.62631613      -0.00000002       0.00000001      -0.00000003
Ar      -3.85194000       5.31224300       7.46307999      -0.53704222       0.04482408       1.26447273       0.00000003      -0.00000002       0.00000001
Ar       6.15767000       1.37246300       5.13695600      -0.86351861      -0.46019351      -0.73269721      -0.00000000      -0.00000009      -0.00000001
Ar      -2.77440900       4.51727400       3.76136800       0.21460194       0.66732273       0.39715202      -0.00000002      -0.00000000       0.00000003
Ar       6.06674500       7.88835599      -3.71903300       0.38376846      -0.56708804       0.75561946      -0.00000005      -0.00000000       0.00000004
Ar       8.68253499      -7.73654099       3.20236900       0.43781395       0.03111542       0.29076907       0.00000003      -0.00000002      -0.00000006
Ar      -7.70069599       0.34679100       3.31764400       0.51160163      -0.21539671      -0.74934404       0.00000003      -0.00000000      -0.00000002
Ar      -8.30009799       0.52492700      -3.17862600       0.10203404      -0.70309975      -0.63028898       0.00000004      -0.00000010       0.00000004
Ar       1.59829800       4.83747900       1.57368700      -0.92089384      -0.81024772      -0.53393170       0.00000007       0.00000005       0.00000006
Ar       6.18354100      -8.56861099      -0.05878400      -0.25783403      -0.24478698      -0.63429394      -0.00000005      -0.00000001      -0.00000003
Ar      -3.13295900      -5.05547700      -0.25736000       0.19779724       0.50134488       0.01074483       0.00000005      -0.00000000      -0.00000002
Ar      -0.09509400      -4.72806000      -2.88648400      -0.76888843       0.31280758      -0.20233712      -0.00000003      -0.00000002      -0.00000000
Ar      -0.29241800       0.17668600       8.60057699      -0.59925549      -0.15937838       0.11371184      -0.00000002      -0.00000002      -0.00000004
Ar       7.28583699       1.44056200      -7.91320499       0.10551499      -0.54622144       0.41083805       0.00000002      -0.00000010      -0.00000001
Ar       4.23492300      -3.89795000      -4.49798300      -0.35229832      -0.85074234       0.36146798       0.00000003       0.00000004       0.00000003
Ar       7.79805299       5.81943900       2.79334400       0.74524296       1.28125920       0.63378476      -0.00000002       0.00000002      -0.00000003
Ar      -2.43256100      -7.19705899       3.15403800      -0.62910724       0.04269124       0.68223519       0.00000005      -0.00000002      -0.00000000
Ar      -7.09801599      -8.02139499      -2.55296300       0.33042886       0.57439936      -0.03710341       0.00000004       0.00000000      -0.00000002
Ar      -1.06274900       7.48748299      -5.36429000       0.58264171      -0.39914903      -0.54258674       0.00000001      -0.00000002      -0.00000005
Ar       4.13722200       6.22174900       3.22083800      -0.36515202       0.10208427      -0.35407326      -0.00000005      -0.00000003      -0.00000005
Ar      -0.73495200      -7.84258999      -1.14215100      -0.51953575       0.04835211       0.42474828      -0.00000000       0.00000002       0.00000006
Ar      -4.73580500      -4.60930000       7.64720199       0.61340691       1.58345384       0.83662318      -0.00000008       0.00000001       0.00000001
Ar       5.38803100      -2.10049000      -7.52491299       0.43203703       0.13624404      -0.79449056       0.00000000       0.00000009       0.00000005
Ar      -6.89407399      -2.79355500      -3.42140200      -0.39944947      -0.13020483      -0.16241192      -0.00000000       0.00000005      -0.00000003
Ar      -0.53704200      -4.14680500       4.87091800       0.70099850      -0.90192936       0.08618214       0.00000001       0.00000004      -0.00000004
Ar       3.28725200       5.11287000      -6.66560100       0.68800186      -0.00989534       0.13190068      -0.00000006      -0.00000004      -0.00000001
Ar      -8.09643099      -3.16777300       3.89186600      -0.21730635      -0.03300485      -0.32466646       0.00000004       0.00000004       0.00000002
Ar       6.68129000      -7.45290299       7.06251599      -0.05045336       0.42014137      -1.07795287      -0.00000006       0.00000004      -0.00000002
Ar       2.03105000      -0.77862200      -4.27782600       0.42708381      -0.09141129      -0.19053870       0.00000002       0.00000008      -0.00000004
Ar      -8.15749599      -1.11533200      -6.70732900      -0.83684971      -0.43930913      -0.01061470       0.00000000       0.00000002      -0.00000001
Ar       6.63979800      -2.47482900      -2.19128300       0.27627408       0.59555551       0.10696809      -0.00000004      -0.00000003      -0.00000002
Ar      -0.60411700      -2.39486200      -5.54519100       0.49766604       0.39490287       0.95244942       0.00000004      -0.00000001       0.00000004
Ar      -2.31440200      -1.32299600       5.80864100       0.16362287      -0.41529875      -0.34486471       0.00000001       0.00000001      -0.00000002
Ar       1.07739500      -3.05587000       8.36618699       0.40820923       0.47226615      -0.16689245      -0.00000003       0.00000003      -0.00000000
Ar       4.59893500      -7.86024299      -6.73416899      -0.40499908       1.06206880       1.15038754      -0.00000004       0.00000001       0.00000002
Ar       5.47793300      -0.09636600      -4.81228400       0.21108637       0.20734230      -0.59122082      -0.00000008      -0.00000004      -0.00000005
Ar       4.51332400      -7.12226199       3.62213800       0.08056037      -0.72779658      -0.99833391      -0.00000004       0.00000001      -0.00000000
Ar      -5.28784700       8.46218999      -5.40004500      -0.61498387      -0.22750003       0.78101973      -0.00000001       0.00000003      -0.00000001
Ar      -8.11427899       5.18833200      -1.33349000       0.30111103      -0.36275898       0.26624595       0.00000002       0.00000000       0.00000004
Ar       4.25895800       5.87979300      -0.68766600       0.05145174      -0.28736251       0.70378231      -0.00000001       0.00000004       0.00000001
Ar       3.45945400       0.95043500      -7.26707499      -0.90263091       0.54397980      -1.12081259       0.00000005      -0.00000004       0.00000007
Ar      -1.57712500       7.73976199       5.80931500      -0.46451375       0.45629446      -0.46852533      -0.00000001      -0.00000001      -0.00000002
Ar      -0.02663600       4.55522400      -7.35851399       0.00042152      -0.96980349       0.27884049      -0.00000001       0.00000001       0.00000006
Ar      -1.32190500       1.94561300      -4.98445000      -1.25287813      -1.27788211       0.25099926       0.00000002       0.00000003      -0.00000000
Ar       3.19860500      -7.65540099      -2.69758900       0.56866210      -1.20959395       0.02131252       0.00000003      -0.00000001       0.00000004
Ar       0.27179900      -5.00891200       0.90253500       0.16632754      -0.06199938       0.23755259      -0.00000004      -0.00000002      -0.00000001
Ar      -1.68625000      -5.17098100      -7.67555099       0.99767223       0.41342083      -0.06874427       0.00000003      -0.00000001       0.00000001
Ar      -4.78452000      -2.23483700      -6.23658600       1.26991062       2.17607167      -0.38681360      -0.00000006       0.00000007       0.00000005
Ar      -7.41718499       7.46814799      -7.99676699      -0.78913871      -0.85579600       0.42813395       0.00000007       0.00000000       0.00000002
Ar      -3.26900500      -8.39820799      -8.21715399       0.03236269       0.67888022       0.22345871       0.00000001      -0.00000000       0.00000002
Ar      -2.17630800       2.37264400       6.74838699       0.53542134      -0.02621824       0.51983012      -0.00000001      -0.00000001       0.00000001
Ar       2.83121900      -3.48428200       3.39070400      -0.19553442       1.24993504       0.15497210       0.00000001       0.00000000       0.00000002
Ar      -6.77294199       3.85891700      -7.69909599      -0.60238708      -0.44686849      -1.26672964       0.00000006      -0.00000001      -0.00000005
Ar      -7.81498899       2.32717500       6.61008200       0.96879904       0.02941205      -0.06723115      -0.00000002      -0.00000005       0.00000004
Ar       7.64198099      -1.11234000       6.88083399       0.13052109       0.88429415       0.17340491      -0.00000000      -0.00000004      -0.00000001
Ar       0.40668600       0.15847000      -0.42233900       0.19500647      -0.30990195       0.59303501      -0.00000003      -0.00000001       0.00000003
Ar       3.19166700      -0.78359200       6.15528100      -0.70214216       0.56971638       0.33619065       0.00000001      -0.00000001      -0.00000002
Ar       0.60009100       1.00275200       3.96779700       0.32000541      -0.19931583      -0.41356258      -0.00000001      -0.00000002      -0.00000000
Ar       7.09387599      -6.06084300      -3.00474600       0.82083927       0.26123034       0.63374942      -0.00000002      -0.00000001       0.00000003
Ar       4.24331800      -4.41066500      -0.67650200       0.31227203      -0.34530529      -0.06468698       0.00000010      -0.00000000      -0.00000000
Ar      -6.60719000       2.67221300       1.29532900      -0.09799103       0.56411013       0.24337866       0.00000001      -0.00000006      -0.00000000
Ar      -3.43398200       4.70957100      -6.67787900       0.43950981      -0.65448819      -1.15519029       0.00000001      -0.00000001      -0.00000003
Ar      -4.76873500       0.79135300      -4.58483600       0.18028215      -0.04533377       0.45451357       0.00000004      -0.00000004       0.00000005
Ar      -7.84759899      -3.63482600       7.91830799       0.07696515      -0.22102145      -0.33981366       0.00000005       0.00000008      -0.00000004
Ar       5.82221500      -3.86767200       6.15406700       0.69932786      -0.08388675       0.83795482       0.00000001       0.00000004       0.00000000
Ar      -1.02847400       7.39572899       1.52976000       0.81326806      -1.09050698      -0.46752016       0.00000002       0.00000005      -0.00000001
Ar      -6.69673700       8.02959699       1.07056600      -0.52734210      -0.05613446      -0.21596768      -0.00000003      -0.00000001       0.00000002
Ar      -3.55675100       1.23808300       3.01695700       0.03149545       1.34728804      -0.75555227       0.00000000       0.00000001      -0.00000002
Ar       0.48092000      -8.56610599      -8.32275099       0.65039241      -1.48697840      -0.42657858      -0.00000002       0.00000004       0.00000007
Ar       6.98853899       2.36404800       0.83756000      -0.81253158       0.27919363      -0.11916970      -0.00000003      -0.00000001       0.00000004
Ar      -4.07551500      -1.78422800       1.19031300       0.50052042       0.47647382      -0.82320215       0.00000005       0.00000003      -0.00000000
Ar       1.32394300      -6.36045700      -5.99629000      -0.27828157      -0.16911792      -0.25952369      -0.00000002      -0.00000004      -0.00000004
Ar      -6.01697900      -7.86697799       6.60259800      -0.97500736       0.79068333      -0.02454549       0.00000003      -0.00000002       0.00000001
Ar      -4.69135000       0.93407300      -1.18383000       0.23208640      -0.11924475       0.19865325       0.00000001      -0.00000002      -0.00000003
Ar       6.64776700      -4.69585400       1.57643300       0.37555568      -0.05819132       0.41202904      -0.00000002       0.00000001      -0.00000003
100
Lattice="17.39529698704239 0.0 0.0 0.0 17.39529698704239 0.0 0.0 0.0 17.39529698704239" Properties=species:S:1:pos:R:3:momenta:R:3:forces:R:3 energy=-9.164529019442648e-06 pbc="F F F"
Ar       4.01386111       2.24266100       2.49470482       0.24210117       0.07163494       0.49898824       0.10013230       0.50567317      -0.07730738
Ar       4.30911591       0.68501305      -1.51357522       0.26427741      -0.85846090       0.22497372      -0.11429339       0.50636934       0.66554105
Ar       0.80193294       4.86799905       5.00418998      -0.54156895      -0.56286490      -0.44091136      -0.40200736      -0.15112541      -0.03727343
Ar      -7.87474060      -0.97039938      -0.24072072       0.54287138      -0.65259584      -0.71156529       0.24453495       0.39915303       0.82864412
Ar      -5.96070731      -1.23207817       5.90149731      -0.95867457       0.99232948      -0.07141198       0.47119597      -0.62624515      -0.23013741
Ar       5.96088288       4.56509724      -3.73902226       1.22743832      -0.24929169       0.44128715       0.12224406       0.05801564      -0.25806494
Ar      -1.91330570       3.23871284      -0.28736385      -0.38942089       0.75766809      -0.76396386       0.03142048      -0.37668649      -0.30123230
Ar      -2.81237950      -1.54272374      -2.68398680      -0.01793060      -0.69206730       0.70385411       1.29061521       0.07332596       0.16943715
Ar      -3.97371340      -5.87761505      -3.60667445      -1.14593163      -0.64697520       0.73792502      -0.11801873       0.49887617       0.39139727
Ar      -3.85151853       7.91200019      -1.85911223      -1.29915137      -0.20813655      -0.00762033       0.50090671      -1.07677835      -0.02174309
Ar      -7.34831843      -5.71492378      -5.97590911       0.30567570      -0.26054136       0.39633589       0.23281054       0.01681964       0.10823888
Ar       5.80895804      -1.48222304       3.11231856      -0.16308326       0.45372368       0.38411864       0.03692761       0.11469338      -0.20068445
Ar       3.27389519      -6.18849509       7.15464008       0.50723745      -0.37504467      -0.20189418      -0.49166685       0.23227714      -0.63142730
Ar      -5.36256944      -5.01033187       3.37245174      -0.78731636       0.41833518       0.55941941       0.80681378       0.71597017      -0.17675732
Ar       3.58148907       3.39545785       7.24346322       0.69062118       0.03475322      -0.36206701       0.02601510      -0.50021291      -0.37289166
Ar      -4.79069713       0.75634851      -8.41359191      -0.29293047      -0.99601509       0.35450788       0.34674597      -0.81647071       0.56602854
Ar      -0.76791905      -1.74388499       2.14664165       0.53188826      -0.13252648      -0.22692325      -0.87317970      -0.80055145       0.66072187
Ar      -5.28353874       6.77129981       4.55629837       0.23297875       0.51327940      -0.00628638       0.87867157       0.32913431      -0.80723763
Ar       0.82912574       5.83152274      -2.60029153       0.30845368       0.19908023       0.23205031       0.39616753      -0.74835445       0.83332064
Ar      -4.45414028       5.27914295       0.23664971      -0.31360696      -0.75191008       0.50711158       0.31983474      -0.85325176       0.05971829
Ar      -4.17620705       4.19045185      -3.32125254       0.76224214       0.68980257       0.62935621       0.30516169       0.19563665      -0.04486783
Ar       1.95843323       2.43873249      -4.19641075      -0.27711408       0.17405078       0.58631015      -0.05346089       0.39261408      -0.50987298
Ar      -7.60019955      -5.09353664       0.15997745      -0.18174382       0.14904075      -0.13473341      -0.07682263       0.51563871      -0.73339140
Ar       3.50430237       7.23331318       7.02710130       0.65343583      -0.74010293      -0.23694992       0.02264793       0.55487921       0.15571920
Ar       2.35845895      -8.29473333       0.63827206      -0.73019828       0.46179881      -0.11890622      -0.46483212      -0.50877422       0.12711553
Ar       0.99640546      -7.58945506       4.14542299       0.21786888      -0.55033977       0.12653030       0.68268360       0.48738312      -0.79334247
Ar      -3.88729882       5.32612873       7.57266240      -0.52132140       0.14654672       2.04589106       0.06230337      -0.55407735       0.01822767
Ar       6.10697041       1.35021899       5.10089653      -0.89110856      -0.56517321      -0.53821444      -0.20301347      -0.63465549      -0.16591952
Ar      -2.74643688       4.54228592       3.79123369       0.64415967       0.25365196       0.49258858      -0.61805489       0.34866470      -0.98191824
Ar       6.10057335       7.84353586      -3.65573588       0.23319414      -0.82305155       0.98639135      -1.01221879       0.47449189      -0.35924765
Ar       8.69834114      -7.70849161       3.22127262      -0.10259764       0.40201239       0.12280302      -0.31817728      -0.11459819      -0.56817933
Ar      -7.68081482       0.32012195       3.29177701       0.13744046      -0.48029543      -0.15846299       0.17014676      -0.23700799      -0.21816670
Ar      -8.27706544       0.52920543      -3.22141904       0.56870734       0.73054300      -0.27377365      -0.04439006       0.68832212       0.23281101
Ar       1.56360948       4.82565904       1.53706881      -0.33604848      -0.06349072      -0.62469442      -0.02401466      -1.05223421       0.25336250
Ar       6.16926198      -8.58249609      -0.10112509      -0.52986917       0.17619713      -0.90085080       0.33842451       0.67521072      -0.01279914
Ar      -3.14029180      -5.03989409      -0.24905125      -0.38951783       0.35504958      -0.15870706       0.15720428       0.66819746      -0.35395062
Ar      -0.14440804      -4.70024655      -2.89445235      -0.62214701       0.63903759      -0.03087284       0.86192162      -0.41313595      -0.35792522
Ar      -0.31171710       0.17006195       8.60261551      -0.10035903       0.44947850       0.20270031      -0.18822429       1.80183866       0.88246165
Ar       7.26648176       1.39919915      -7.91336735      -0.44890674      -0.79250019      -0.04346740      -0.09619420      -0.03772573       0.08981086
Ar       4.19083018      -3.91777353      -4.49338582      -0.50510459      -0.00228165      -0.31761428       0.60374366       0.02911664      -0.05364032
Ar       7.84703296       5.88057549       2.78781144       1.03159940       0.51960726      -0.58840900       0.26736826      -0.53926753      -0.39241016
Ar      -2.44264174      -7.21536388       3.21665854      -0.06480396      -0.30849419       1.15985178      -0.39472552       0.49921038      -0.08144449
Ar      -7.08704394      -7.99158960      -2.57488319       0.11165664       0.41678092      -0.93733538      -0.47337159      -0.78716104      -0.30019681
Ar      -1.05292981       7.49083173      -5.35807073       0.16398089       0.46878079       0.13974436       0.81735164       0.77117596      -0.37301193
Ar       4.13915219       6.24201548       3.19077505       0.08661857       0.56532608      -0.51228639      -0.84853864       0.40356536       0.21995982
Ar      -0.77237235      -7.83030887      -1.13656770      -0.75751531       0.16742398       0.25618829      -0.18631711      -0.39320169       0.89810515
Ar      -4.72690599      -4.54620565       7.69151539      -0.07254020       0.29891277       0.58638822      -0.83610116      -0.69804986      -0.20045831
Ar       5.41126753      -2.10163728      -7.55512012       0.16354931      -0.57555345      -0.72978219       0.02631601      -0.88139228      -0.64894036
Ar      -6.92771316      -2.81405512      -3.40419556      -0.92467624      -0.55455816       0.43351246      -1.30358816      -0.37324108      -0.99722360
Ar      -0.51817230      -4.18384836       4.89193993       0.35409081      -0.23848870       0.66535682       0.79462637       0.28751847       0.14156975
Ar       3.33181954       5.08990715      -6.66718046       0.64954953      -0.77665161      -0.45543920      -0.33297282      -0.79187967      -0.56004873
Ar      -8.10497058      -3.16408893       3.87253580      -0.05745628      -0.18287279      -0.13433198      -0.28843420       0.48393244       0.60262036
Ar       6.67879636      -7.42074043       6.99273120      -0.02205142       0.69518185      -1.59503462      -0.28542482      -0.42286725      -0.26630016
Ar       2.03233105      -0.76293422      -4.27882535      -0.22530552       0.66617226       0.16778304      -0.20648230       0.09371507      -0.03022755
Ar      -8.20580197      -1.11111088      -6.70475622      -0.88160918       0.21241162       0.50823541       0.07528167      -0.91858120       0.69597480
Ar       6.68349411      -2.43891166      -2.19901794       1.21853586       0.69655373      -0.04611170      -0.62513693       0.12944071       0.22656774
Ar      -0.59464648      -2.38455111      -5.46955793       0.02491084       0.22543570       1.44468252       0.28922778       0.06453077      -0.40901747
Ar      -2.32477994      -1.35608712       5.78290165      -0.36297301      -0.69919777      -0.58143746       0.26968506      -0.24503460       0.05528908
Ar       1.09862703      -3.05262050       8.34786668       0.43202517      -0.45724662       0.04622189      -0.86259499      -0.73144024       1.02846631
Ar       4.59425343      -7.78342914      -6.69104294      -0.01312416       0.92519229       0.15830143      -0.23670580       0.05740057      -1.14462269
Ar       5.48485003      -0.09162450      -4.84971666       0.09979650       0.15655831      -0.57364640       0.24422825      -0.15812939      -0.39342846
Ar       4.52367495      -7.17609965       3.57484653       0.51334276      -0.63183648      -0.04225027      -0.15244724       0.20151050       0.50082323
Ar      -5.32415245       8.42814031      -5.38084486      -0.65735699      -0.50112742       0.15287668      -0.10735800       0.29802416       0.24203221
Ar      -8.12106184       5.16815121      -1.31844387      -0.74489322      -0.27430210       0.14765057      -0.56651401      -0.24621963      -0.38086690
Ar       4.26685169       5.85709031      -0.67766145       0.30999870      -0.05885916      -0.49169339      -0.81343603       0.60913357      -0.26228228
Ar       3.43776983       0.97042055      -7.31594108      -0.06735701       0.40370700      -0.87552537       0.70637170      -0.37203391       0.53076760
Ar      -1.60770552       7.76816850       5.77693220      -0.26868199       0.88740942      -0.18844465      -0.35106468       0.92553112       0.40072619
Ar      -0.02310755       4.51358277      -7.34291550       0.06660827      -1.06771395      -0.16033194       0.58085044      -0.57800699       0.01963852
Ar      -1.38666982       1.91347471      -4.98088796      -1.08445699      -0.08913560      -0.32670230       0.03097913       0.08634101      -0.65818917
Ar       3.21445959      -7.73718269      -2.69750314       0.01756222      -1.30206455      -0.19319608      -0.92453616       0.10323827      -0.16322184
Ar       0.27967759      -5.03007929       0.91419253       0.11170594      -0.44260515       0.06547707       0.27596822      -0.14785983       0.53809842
Ar      -1.63443239      -5.15379381      -7.67809629       0.59560379       0.14612587       0.32747926      -0.19648039       0.46053469      -0.62540152
Ar      -4.72518632      -2.13203247      -6.27939172       0.65506029       1.01309580      -1.15776409      -0.84227382      -0.53353522      -1.07352542
Ar      -7.46466446       7.41473616      -7.97886486      -0.34747327      -0.67305034       0.10749918       0.32687572       1.16900176       0.36968787
Ar      -3.25907674      -8.35096106      -8.21772787       0.66480583       0.60713306       0.12912086       0.02743030      -0.05215745       0.30000439
Ar      -2.13451406       2.34243849       6.77571788       0.85379446      -0.88918578       0.44258118      -0.69364440       0.83945597       0.19748581
Ar       2.79526050      -3.41198707       3.41346788      -0.85410726       1.03889197       0.80391829      -0.74172129       0.44632729      -0.66940169
Ar      -6.79586207       3.84575094      -7.76189063       0.22278218      -0.04352822      -0.45322183       1.01794294      -0.20646657       1.34371611
Ar      -7.76418434       2.34226638       6.59826021       0.70262300       0.59879768      -0.02338771       0.02681348       0.21146638      -0.33975229
Ar       7.65878876      -1.06630502       6.87698906       0.41987652       0.83216482      -0.31687321       0.38721942      -0.11142764       0.19792762
Ar       0.41592320       0.13979282      -0.40512779       0.05400445      -0.60523424       0.11977463       0.52141282      -0.17356268       0.24181152
Ar       3.13568530      -0.76768845       6.16003203      -1.20982144      -0.08734371      -0.04972369       0.88421530      -1.29322956       1.07094309
Ar       0.63137151       0.98907884       3.96913205       0.32607932      -0.10732771       0.18169645      -0.12368249       1.05856240      -1.51676196
Ar       7.13583191      -6.04345968      -2.98347349       0.46826714      -0.11821953       0.02878069      -0.07869780      -0.39234642      -0.53494261
Ar       4.26712803      -4.38458683      -0.69552997       0.04898268       0.92202751      -0.17226404       0.17258193       0.32661877       0.73506744
Ar      -6.62004711       2.69916333       1.31691938      -0.22030632       0.26466341       0.40102012       0.28878548       0.10507918      -0.05951341
Ar      -3.40733354       4.66954957      -6.74006755       0.41026350      -0.14938600      -0.52284357       0.36521909       1.32610079       0.52406684
Ar      -4.76453163       0.79225471      -4.56705093       0.05326115       0.13821711      -0.26173801       0.29168044      -0.63008216      -1.00859681
Ar      -7.86366175      -3.64069994       7.92899554      -0.63319647       0.21449207       0.63221506       0.00211490       0.35281610       0.29077933