114
Lattice="14.867619239232576 0.0 0.0 7.616091916881307 12.957323772206134 0.0 7.434407699978016 4.300368937881452 12.170266820017277" Properties=species:S:1:pos:R:3:initial_magmoms:R:1:dft_forces:R:3 dft_energy=-842.02405762 dft_stress="0.007312327166620456 0.005941030437235551 0.004142586144270369 -0.001150207764909111 9.194056266184159e-05 0.0013824186367755542" pbc="T T T"
Zr      23.16971733      14.49287408       4.68085439       0.00000000       0.72691533       1.00174361       0.94841738
Zr      15.62831245       5.81982230       7.47628100       0.00000000      -0.08677602      -1.11688178      -0.32708030
Zr      17.44376860       4.56901559       4.57945051       0.00000000      -1.05306721       0.96045006       0.98756058
Zr      13.68376242       2.68567989       7.57601870       0.00000000       1.05225182       1.69958870      -0.40146329
Zr      24.92275523      15.63240609       7.74544491       0.00000000       0.32119752      -0.26542637      -2.32738673
Zr      13.87778371       4.69826557       4.57677531       0.00000000      -0.51337115       0.62322264       1.17630988
H       20.69518338      11.09998902       4.18557409       0.00000000       0.22013063      -0.39341329      -0.18690500
H       13.77979129       7.23964125      11.38195507       0.00000000      -0.81602179      -0.04687263      -0.09117019
H       10.77636217      12.72949503       1.33103478       0.00000000       0.14370559      -0.41330713       0.37073102
H       17.48752941       9.70687545       7.61228628       0.00000000      -0.24437471       0.40659354       0.50150138
H       17.75413156       7.08074070       0.83322321       0.00000000       0.03014363      -0.08019892      -0.11998635
H        9.44640362       4.45197627       3.92146120       0.00000000      -0.42070009       0.26804722       0.49756975
H       14.55985996      15.11114553       7.60214796      -0.00000000       0.41489745      -0.60512162      -0.45047390
H       20.97454471      13.33353530      11.36859580       0.00000000      -0.85697338      -0.12606456      -0.46056804
H       18.18274533       7.59622036      10.74467542       0.00000000      -0.18377675       0.53540922      -0.05213427
H       11.65297066       8.54021003       4.29800783       0.00000000      -0.12349232       0.10022973      -0.06065698
H       12.05062029      11.56805611       8.22395596       0.00000000       0.07879252       0.21453463      -0.14142773
H       21.01367964      12.98401715       1.24384321      -0.00000000       0.12993416      -0.21881164      -0.32492748
H       25.13778831      13.11044995      11.01106146       0.00000000       0.28227136      -0.68587570       0.01620473
H       17.03536586      14.73551632       7.30617147       0.00000000       0.65425400      -0.10541511       0.47143923
H        6.85933357       4.51949810       4.03805991       0.00000000       0.01790315      -0.21443599       0.08919945
H       13.44092269       7.03790638       0.76248857       0.00000000      -0.15171896       0.39772901       0.45658946
H       19.86589091       8.73419069       4.25120554      -0.00000000      -0.39867189       0.45623318      -0.17624388
H       19.46197442      16.34187982      11.44439859      -0.00000000       0.13590701       0.59903526       0.04538995
H        4.38375328       3.84544054       0.67329164       0.00000000       0.58703225      -0.28462320       0.44945947
H       18.60997175      12.08437799       7.62282917      -0.00000000      -0.28458327      -0.20059117       0.47722484
H       11.92700947       4.02060333       0.80275176       0.00000000      -0.04278384      -0.03374018      -0.47783485
H       13.22956328       9.39690524       8.17102852       0.00000000      -0.06328663       0.47551860      -0.49505316
H       10.21905245      10.63546807       4.48208473      -0.00000000       0.45795606      -0.02874572      -0.38560458
H       27.33399232      16.66796531      11.31175182      -0.00000000      -0.37537300      -0.15621968      -0.00086704
H       23.03068919      13.33604469       7.27921210       0.00000000       0.11175364       0.25550641      -0.00549390
H       12.66296627       5.04961874       7.11722298       0.00000000       0.46493784       0.36297797      -0.02455148
H       15.37831832       3.55204323       2.70117608       0.00000000       0.54100793       0.23997986       0.16894027
H       18.46237816       5.39147703       7.17897491       0.00000000      -0.30068775      -0.44995977      -0.19695690
C       20.03433056      10.76270121       4.98051558       0.00000000       1.29613757      -0.58066693      -0.30873852
C       12.96426544       6.61340604      11.80059335       0.00000000       0.80507117       0.14400059      -1.26685452
C        3.89838028       0.41413323       0.87233593       0.00000000      -0.79339236       2.51710665       0.75033629
C       18.26551967      10.00154392       6.92406277       0.00000000       0.22585819       0.80086808      -1.01823256
C       16.82706022       7.39845953       0.35873130       0.00000000      -0.52808000       1.83666998      -0.61488755
C        8.85017692       4.01621987       4.73924134       0.00000000      -0.73199058      -1.24052637       0.74057130
C        7.52294320       2.49512122       6.72583286       0.00000000      -2.30476420       1.03358383      -0.14465391
C       21.84360883      12.76581861      11.63595029       0.00000000       0.49880186       1.10153162      -1.41050023
C       18.77848253       6.91897433      11.33489791       0.00000000      -0.19082728      -0.38204568       1.15860845
C       11.76095965       9.23038715       5.13716155       0.00000000      -0.04070431      -0.11109030      -0.71615364
C       12.02431730      10.97100271       7.31220704       0.00000000      -1.21903601       0.51764465      -0.38868444
C       12.84702094       0.75121928       0.65060025       0.00000000      -0.56828632       0.64231903      -0.37409203
C       24.25409019      12.62378870      11.43265942       0.00000000      -0.07508144      -0.02021627       0.64141858
C        8.89993806       2.41799178       6.62475077       0.00000000      -1.29791322       0.60032553       0.25069188
C        7.42935989       3.95333305       4.78442208       0.00000000       0.97816389       0.83554826      -0.78865309
C       14.36238848       7.51292685       0.44295691       0.00000000       1.14629497      -0.49110253       0.61778172
C       19.48889565       9.47765785       4.97340900       0.00000000       0.12672709      -1.08408635      -0.49453118
C       11.98227061       4.39589462      11.87657544       0.00000000       0.00434723      -1.41058704      -0.22400059
C        4.62126690       2.77792905       0.55391800       0.00000000      -0.52088832      -0.58162460       1.08635996
C       18.87020781      11.31662919       6.89959617       0.00000000      -0.62026671      -1.28722626       1.77865334
C       11.98956833       3.02038064       0.35899106       0.00000000       0.67259087      -1.23436678       0.32226597
C       12.68873749       9.78163622       7.27986932       0.00000000       1.15330532      -2.46354962      -0.22111165
C       11.04272604      10.43485079       5.17422822       0.00000000      -0.99599111      -0.09190175       0.19123307
C       19.56370858       4.73288856      11.66719319       0.00000000       0.86252581      -2.95695539      -0.03767006
C        3.09320082       2.29048045       2.49052289       0.00000000       0.06948083      -1.69609432      -0.94620479
C       17.87702395       7.66651529       5.93192936       0.00000000      -0.39489311       0.47788324      -1.48150572
C       20.77113065      12.88608607       6.11866051       0.00000000      -0.39860596       0.27897231      -1.93501484
C       13.46216762       5.01367186       9.88079709       0.00000000      -0.66858468      -0.38994931       0.94805072
C        5.23485672       3.40428436       5.83555485       0.00000000       0.26279649      -0.25643627       0.03171590
C       23.02040826      14.14817377       9.81533910       0.00000000       0.50464012       0.93077216       0.89701392
C       15.66859105       6.23459351       2.23790852       0.00000000      -0.53322389      -0.20684260       1.63786190
C       11.02336226       3.53805658       5.96418263       0.00000000      -0.46017997       0.99287653       0.85491766
C       10.48167385      12.67916176       6.23600033       0.00000000       0.03020341      -1.87785631      -0.86783810
C       13.49272969       2.37852781       2.39264574       0.00000000      -2.10157825      -0.84612237      -0.82156748
C       17.83483373       5.13370620       9.77437247       0.00000000       2.35447259      -1.34464760       0.77987935
C       13.46319740       7.57623003       6.10350185       0.00000000      -0.94369496       1.57656671      -2.11459403
C       19.91971147      11.64271815       6.05923659       0.00000000      -0.40454083      -0.25302083      -1.17989919
C       12.83613763       5.31178410      11.28423929       0.00000000       1.00912583       0.38327699      -1.48505512
C        3.90208467       1.80383008       1.30130284       0.00000000      -0.25349839      -0.17894988      -0.47156959
C       18.56480674       9.01329500       5.93958825       0.00000000       0.74581873       2.00367716       0.88291899
C       15.60574666       7.09876767       0.99087053       0.00000000       0.92866361      -1.35642323      -0.08424322
C        9.53055810       3.28865355       5.75008151       0.00000000       1.73133830       0.01030000      -0.64336412
C        6.74159871       3.29692637       5.80724672       0.00000000       1.01071463      -0.47259523       0.08997765
C       23.04632382      13.18156971      10.97778269       0.00000000      -0.61199223      -0.72740299       0.67319872
C       18.74197299       5.54392142      10.93796450       0.00000000      -0.56555384       2.83036282      -0.02926974
C       12.64849486       8.87589703       6.13788100       0.00000000      -0.14413247       0.73731882       1.64919735
C       11.13787235      11.33023444       6.23968078       0.00000000       1.92019125      -0.29548763       1.03995122
C       12.76373168       2.04941369       1.12802173       0.00000000      -0.50782992       0.84150288      -1.26595816
O       21.66920831      13.02454642       5.14003386      -0.00000000      -1.97276698      -0.76657248       2.35056927
O       14.24351294       5.89392636       9.37337272      -0.00000000       0.02707226      -0.79589534      -0.07976521
O        2.34504640       1.44202902       3.06618085      -0.00000000      -0.64614567      -0.45153922       0.23374080
O       16.80950942       7.57698011       6.65274592      -0.00000000       1.26291540      -0.51818494       0.53417379
O       16.79446077       5.95725724       2.85462478      -0.00000000      -1.50511328       0.43778997      -1.46437284
O       11.57373760       3.28749527       7.11868083       0.00000000      -0.64043110      -1.17883247      -0.39558793
O        4.63813243       4.05321783       4.89628911      -0.00000000       0.64643976       0.44033818      -0.11164000
O       21.87927112      14.59587701       9.39223227      -0.00000000       1.53390689      -1.34932804       0.71567853
O       17.99785272       3.90481157       9.43975959      -0.00000000      -0.05388093      -0.26533125      -0.10032701
O       13.30202593       6.82192461       5.07470448      -0.00000000      -0.49240951       0.20164569       0.37756330
O       10.82034517      13.53619811       7.06821960      -0.00000000       0.30460451       1.11843946       1.43698051
O       13.05445561       3.44312076       2.93438712      -0.00000000       0.79088656       0.40284965       0.48658325
O       24.21264629      14.54720949       9.43258865      -0.00000000      -1.55707718      -1.08745523       0.58425699
O       11.60102562       4.27045626       5.12743758      -0.00000000       0.68746780       0.34214593      -1.56818334
O        4.60967008       2.81982254       6.74623159      -0.00000000      -0.06491435      -0.51731961       1.54028760
O       14.48632663       5.91077913       2.69689427      -0.00000000       1.15634250      -0.14756952      -0.10156860
O       18.29051556       6.84185616       5.03482965      -0.00000000      -0.35353384      -0.43940205       0.96559728
O       13.03511655       3.90761040       9.35169830       0.00000000       0.67692021       1.16806764       0.12141933
O        3.21370497       3.49283606       2.84527741      -0.00000000       0.38635147       0.88773060      -0.26157246
O       20.44558182      13.76438752       6.99946989       0.00000000       0.35914929      -1.26651979      -0.49524482
O       14.28879512       1.47366028       2.83204215      -0.00000000       0.20287465       0.83209579       0.27192835
O       14.35344454       7.46480070       6.97755470      -0.00000000       0.23251359      -0.10790322       1.26603323
O       24.47831962      12.77650001       5.31646579      -0.00000000      -1.10269268       0.90548844      -0.89923473
O       17.13214715       5.96367407       9.16040895      -0.00000000      -0.93549148       1.08097501       0.05672746
O       15.56621463       3.63782697       3.65433079      -0.00000000       0.20980752      -0.40960266      -0.26554605
O       17.72668797       4.82280294       6.86507176      -0.00000000      -0.40190562       0.42420451       0.15798930
O       23.08536752      14.27911214       7.03664292      -0.00000000      -0.08879060      -0.04250489      -0.31281694
O       13.59336009       4.95083255       6.82132411      -0.00000000       0.07324315      -0.73508268       0.62170722
O       15.58634884       3.60663964       8.01914643      -0.00000000      -0.76071441       1.99040972      -0.66993269
O       14.03183731       2.83732070       5.52108660      -0.00000000       0.47967686      -0.41932085      -0.29823871
O       15.63388581       5.42499141       5.46820789      -0.00000000       0.41366646      -0.83035980      -0.31940133
O       16.95733780       2.76006278       5.57320545      -0.00000000       0.21495623       0.67011485      -0.01531076
