114
Lattice="15.006043562578022 0.0 0.0 7.579305473192316 12.82414370127448 0.0 7.614118520884489 4.116465849530891 12.135762924418065" Properties=species:S:1:pos:R:3:initial_magmoms:R:1:dft_forces:R:3 dft_energy=-842.56381112 dft_stress="0.003367844917937776 0.0032081845554789417 0.0023585669525705267 -0.0004766695195056987 0.0007884126778539997 -0.0008401700053068208" pbc="T T T"
Zr      23.31028110      14.29653039       4.46559465       0.00000000      -0.57499382      -0.57408945       2.11291556
Zr      15.76699079       5.67062353       7.50883841       0.00000000       0.16606450      -1.78592646       0.58928048
Zr      17.59732315       4.53829173       4.56962558       0.00000000      -0.70263131       1.42860387       0.24072090
Zr      21.57393115      15.36196584       7.55519404       0.00000000       0.28972943      -1.83196112      -0.56619260
Zr      25.21371669      15.30729051       7.47676159       0.00000000      -2.33808325       0.33616438       0.22072508
Zr      14.04354409       4.56229540       4.63760043       0.00000000      -0.99617663      -0.17073325      -0.88536781
H       20.87006360      10.69269945       4.25649209       0.00000000      -0.41648622      -0.12792145      -0.15624578
H       13.64700838       7.00508099      11.07340221       0.00000000       0.60886382      -0.07071712       0.24437639
H        9.98534161      13.07610324       0.85672222       0.00000000       0.04984975      -0.82637654       0.22359569
H       17.95910221       9.47046803       8.12592464       0.00000000      -0.03731171      -0.22150650       0.45331289
H       18.01436271       6.85529090       0.65302750       0.00000000       0.81840114      -0.19800941       0.10583853
H        9.47412054       4.81837557       4.26879634       0.00000000       0.53602534       0.31606853      -0.54588479
H        6.96309713       3.13800886       8.09053656       0.00000000       0.26994618      -0.03732107       0.23412124
H       21.40051825      13.15850144      11.53660001       0.00000000      -0.26437251      -0.07448670      -0.45209492
H       17.61197615       6.85203429      11.31450364       0.00000000       0.34360966      -0.29613973       0.24241603
H       11.54445348       8.29291612       4.28869263       0.00000000       0.77298484      -0.22072611       0.05777431
H       12.48690401      11.77851725       7.71180344       0.00000000      -0.14059200       0.16103609       0.31974505
H       21.21267999      12.53482379       0.70679957      -0.00000000       0.30695612       0.77014713       0.26486515
H       25.58575666      12.32561511      10.69666077       0.00000000      -0.24203336      -0.10041395      -0.36347485
H        9.41545917       3.44620877       8.30455894       0.00000000       0.36545849      -0.52076298       0.27248808
H        7.10114885       4.82298214       4.17026271       0.00000000       0.05251703      -0.18532272       0.42637050
H       13.83177066       7.33403826       1.22173816       0.00000000      -0.42534132       0.09970961       0.33724034
H       19.28858334       8.54951310       4.24418458       0.00000000       0.71143647       0.16848375      -0.16658363
H       18.94039021      16.29689771      10.92414174       0.00000000      -0.48592805      -0.34329017      -0.26820577
H        5.18816126       3.48396637       1.22750228       0.00000000      -0.42018020      -0.15968548      -0.05392462
H       19.45197315      11.31476432       8.28084643       0.00000000       0.17038100       0.84217715      -0.18636492
H       11.29517217       3.39867561       1.16000452       0.00000000       0.31382535      -0.22262460      -0.12042217
H       13.54776059       9.35166093       7.94856312       0.00000000       0.40402290       0.73772729       0.21040719
H       10.65080121      10.62168134       4.05107809       0.00000000      -0.08658361      -0.41399444      -0.01027613
H       27.58731798      16.15945018      10.84709737       0.00000000      -0.07027446      -0.11877142       0.22360288
H       23.44751147      13.16977127       7.26324876       0.00000000      -0.19946477      -0.11737293      -0.20848695
H       12.94259447       5.04968069       7.23105984       0.00000000       0.72500706      -0.13444736      -0.37854141
H       15.66192556       3.49006374       2.56865565       0.00000000       0.12665250       0.31117249       0.18674630
H       18.56802269       5.20159557       7.10138618       0.00000000      -0.45835857      -0.04938795       0.12208691
C       20.15963974      10.43424083       5.04519667       0.00000000      -0.72009243      -1.39063590       0.29305505
C       13.04066287       6.30496808      11.63760423       0.00000000      -0.74582861       0.54220979       0.66017892
C        3.38888534       0.59450308       0.56477459      -0.00000000      -0.00323351       1.22576638      -1.39295264
C       18.58930054       9.70605572       7.28467607       0.00000000       0.28390277       0.33337161      -1.09835615
C       17.12926500       7.32269550       0.28350314       0.00000000      -2.48291959      -0.84472450       1.57386077
C        8.95529254       4.46909826       5.13649876      -0.00000000       1.80949054      -0.19153517       0.16145986
C        7.57076456       3.48405463       7.25296749       0.00000000      -0.62438276      -0.53643112       0.35125566
C       22.28811384      12.56380328      11.70781623       0.00000000       1.19385338       0.36895708      -0.46682723
C       18.47738503       6.25934787      11.66523781       0.00000000      -1.58194973      -0.29241469      -2.16899006
C       11.92566811       9.04732477       4.98190693       0.00000000      -0.10672410       0.58466570       0.17628640
C       12.34717024      11.00621081       6.97166721       0.00000000       1.44208458      -1.65135768       0.67747521
C       12.96491252       0.52083387       0.37513393       0.00000000       0.41113371      -0.90890126      -0.21078820
C       24.65595518      12.11889252      11.22974797       0.00000000       0.33004129       0.95905756       0.44522670
C        8.95292258       3.57614574       7.34110372       0.00000000       0.22640578       0.59206369      -0.34604033
C        7.60085228       4.43623427       5.07515137       0.00000000      -2.18000074      -0.66843014      -0.30060371
C       14.71938133       7.59522121       0.67388055       0.00000000      -0.40797199       0.78146813      -0.77435650
C       19.40427339       9.22953752       5.09515255       0.00000000       0.33598867       0.74619270      -2.00262354
C       11.59196854       4.38226332      11.45122524       0.00000000       0.05008196      -0.60212363       1.86072402
C        4.82402424       2.58081704       0.72277848       0.00000000       0.95700013      -0.64193521      -1.22495710
C       19.39300663      10.86848790       7.29530910       0.00000000      -1.21041974      -1.49910298       0.31032898
C       11.58270302       2.51108146       0.57658215       0.00000000       3.48011631       0.77509628       3.12499033
C       13.02843668       9.76368551       7.08622883       0.00000000      -1.02968333      -0.30502545      -1.23480794
C       11.31182898      10.30935351       4.85898862       0.00000000       0.74604636      -0.62996969       0.93720216
C       19.79772028       4.24645014      11.40375117      -0.00000000       0.51051937       0.65334482       0.18285254
C        3.08323172       2.20885869       2.43137169       0.00000000      -0.42229592      -0.60050208      -0.09071863
C       17.93141475       7.52792165       6.09320215      -0.00000000      -0.58124531       1.08732073       0.48738879
C       20.89417437      12.49147392       6.16918033       0.00000000      -1.09033251       0.20667581       0.31313417
C       13.46178117       4.70965716       9.76764603       0.00000000      -1.45552553      -1.63004601       0.81551436
C        5.35331676       3.66950261       6.08097548       0.00000000       0.34908233       1.58666303      -2.83846485
C       23.36833965      13.69452489       9.75701637       0.00000000      -1.34440399       0.18874804      -0.01819363
C       15.93338534       6.26982267       2.34486668       0.00000000      -0.69243675      -0.24579665      -1.04332655
C       11.15206643       3.64687534       6.11541029       0.00000000       0.78346267       1.38907011      -0.62827231
C       10.70379779      12.53499933       5.91756127       0.00000000       0.54973060      -1.76960230      -1.22274372
C       13.53560747       2.17579306       2.24672024       0.00000000      -1.03428287      -0.19618317       1.08401966
C       17.94734218       4.71140633       9.77203128      -0.00000000       1.38221349      -0.70323266      -0.57270212
C       13.58929912       7.54219399       6.15042463       0.00000000       1.45657218      -1.57875240      -0.91271095
C       20.10171169      11.27235044       6.15276414       0.00000000      -0.24785372      -1.34783303       0.85089524
C       12.68129516       5.10348579      11.00516794       0.00000000       0.39439069       0.59115092      -0.57847216
C        3.82203847       1.75447376       1.24793109       0.00000000       0.45361641       0.20766533      -0.51216190
C       18.55859376       8.88347067       6.12110631       0.00000000       0.70528908       0.42907417       1.55166439
C       15.92022232       7.10051664       1.09216869       0.00000000       2.11443598      -0.33119254      -0.61278328
C        9.72865580       3.98318575       6.22128614       0.00000000      -2.55357674      -0.49542744      -0.17711502
C        6.84957545       3.77277779       6.09154962       0.00000000       0.51644826       1.45757516      -0.41766541
C       23.46183701      12.79746670      10.91230059       0.00000000      -1.58301081      -0.98848595       1.22006584
C       18.81518264       5.10203740      10.94849610       0.00000000      -1.44420010      -0.41797877      -0.60869467
C       12.86147559       8.78818251       6.05584242       0.00000000      -1.44899364       2.04981581       0.65445176
C       11.53363585      11.23482393       5.88642922       0.00000000      -1.12566316       1.45785246      -0.42187407
C       12.80834445       1.76009219       1.00415112       0.00000000      -2.57323953       0.32336725      -0.48929270
O       21.63116573      12.63333842       5.17197310      -0.00000000       2.19494510       1.18744241      -1.29368394
O       14.32157703       5.50975331       9.39728551       0.00000000       1.67588370       1.34805829      -1.16817189
O        2.27251432       1.32884047       2.89314233      -0.00000000      -0.38530412       0.49971792       0.42967310
O       17.16866965       7.28440485       7.10778969      -0.00000000      -0.20949453      -0.15146505      -0.08516727
O       17.06369952       5.95301439       2.78951797      -0.00000000       1.33380880      -0.77844610       1.22686047
O       11.59383709       2.92615841       7.04850190       0.00000000       1.33199914      -0.31309504       0.01130653
O        4.73795860       4.28414888       5.04385648      -0.00000000       0.68344300      -1.16648501       1.88721924
O       22.19979516      14.04635151       9.34732388       0.00000000       0.32880836       0.03497859      -0.09670488
O       18.28044279       3.54827520       9.24667163       0.00000000      -0.68472789       1.38844303       0.52274969
O       13.40558139       6.82385869       5.09145110       0.00000000       0.50043822      -0.87260059       1.45020621
O       11.00770363      13.33531110       6.84072717      -0.00000000      -0.07297981       1.29079260       0.79265505
O       13.21235348       3.28751421       2.79199196       0.00000000       0.48225016       0.02147577      -0.50738964
O       24.46870868      14.03556963       9.25991905      -0.00000000       1.79862599       0.61807577      -1.30454431
O       11.81458953       4.19222920       5.12190321       0.00000000      -0.06349144      -0.33451776       0.60699201
O       19.79741062       3.06396541       7.01231169      -0.00000000      -0.81137285      -0.81872104       0.59106787
O       14.80913476       5.84734640       2.77521529      -0.00000000      -0.63346330      -0.02896912       0.49270649
O       18.16198655       6.76566803       5.11895341       0.00000000       0.16898325      -0.76005561      -0.26852367
O       13.19613666       3.55181497       9.21667335       0.00000000      -0.39845167       1.28088209       1.15619331
O        3.23558091       3.40516420       2.84516522      -0.00000000       0.69283782      -0.25395668      -0.13378989
O       20.63081515      13.28039394       7.13432209       0.00000000       0.86855988       1.34326687       0.32859896
O       14.29990711       1.29549805       2.82143306       0.00000000       0.41602583       0.37955008      -0.67491529
O       14.46048872       7.28289581       7.15889290      -0.00000000      -2.41919717       1.08877751      -1.98284293
O        9.80207928      12.64719656       5.02316572       0.00000000      -0.17321832       0.27931456       0.19833983
O       17.11410093       5.55893414       9.31597762       0.00000000       0.09221303      -0.43942625       0.46601036
O       15.79942295       3.50458407       3.53298005      -0.00000000      -0.57410410      -0.00341507       0.29345644
O       17.71312461       4.77272629       6.89854785      -0.00000000       0.58126948      -0.95921366      -0.71002965
O       23.34357333      14.02451131       6.81535713      -0.00000000       0.35790382       0.33073343      -0.06692741
O       13.79244303       4.69251361       6.87587513      -0.00000000      -0.75643373       0.30049652       0.29299148
O       15.75686576       3.44157248       8.04525046      -0.00000000       0.83210760       1.01456837      -1.28284714
O       14.22169404       2.63009109       5.43093290      -0.00000000       0.63096954       0.68080158      -0.28492093
O       15.71390630       5.38049268       5.40688045      -0.00000000       1.22428221      -0.78204199       0.42702638
O       17.25497341       2.68735446       5.37407183       0.00000000       0.02232482       0.13618010       0.59430680
114
Lattice="14.870309755571165 0.0 0.0 7.367381893636264 12.781417883017888 0.0 7.508650116007879 4.0551366859139995 12.067326720366529" Properties=species:S:1:pos:R:3:initial_magmoms:R:1:dft_forces:R:3 dft_energy=-842.47613824 dft_stress="-0.0007044470911305911 0.0003705961953829554 -0.0040370614238337535 -0.0015229871528031724 -0.0037721788107120528 0.0008214398605709576" pbc="T T T"
Zr      22.97482682      14.27248606       4.52144690       0.00000000      -0.65049246       0.57070139       0.06739265
Zr      15.65965223       5.51707694       7.57451386       0.00000000      -1.82179999       0.01616588      -1.25152862
Zr      17.35306742       4.66311137       4.65349312       0.00000000      -0.56979540      -1.02396951      -1.38915172
Zr      21.11113895      15.25816518       7.38415273       0.00000000       0.33194255       0.15732702       0.12349360
Zr      24.70419403      15.18619576       7.46255336       0.00000000       0.24678372       0.59970911      -1.18101424
Zr      13.85640729       4.57828611       4.49056821       0.00000000      -1.01408724      -1.20996106       0.94118626
H       21.29981358      10.20584958       4.46063621       0.00000000      -0.07195853       0.11647494      -0.47040823
H       13.42634800       7.17402488      10.71154361       0.00000000       0.73145558       0.17209359      -0.36267302
H       10.12243553      12.96232740       1.19885232       0.00000000       0.37239570      -0.14766205      -0.13809432
H       17.96090141       9.48018911       8.13036880      -0.00000000       0.29642922      -0.70041448      -0.53597316
H       17.53548797       7.68983559       1.27951867       0.00000000       1.56954601      -0.14726169       0.26569853
H        9.49897429       4.15614694       4.03323017       0.00000000       0.16276886      -0.15522111      -0.71013324
H        6.90571219       3.05018769       8.03073075       0.00000000       0.13127786       0.04623300       0.06000321
H       20.78221057      13.01352899      11.23236268       0.00000000       0.31195911      -0.48530250       0.20874075
H       17.32903435       6.79361035      11.39390567       0.00000000       0.19985586      -0.02857640      -0.05040264
H       11.73006038       8.27696086       4.23958808       0.00000000      -0.14867275      -0.17010336      -1.39870387
H       11.46987607      11.32993473       8.05009102       0.00000000       0.45231302      -0.05716837       0.44994599
H       20.99896766      12.69542338       0.87434142       0.00000000      -0.07080665      -0.09335054      -0.37465591
H       25.02321034      13.01559392      11.07532504       0.00000000       0.95798983       0.13704791      -0.14429131
H        9.48618043       3.12192170       8.06843793       0.00000000      -0.63344386      -0.38674478       0.40456221
H        6.99293829       3.68535652       3.81230442       0.00000000       0.44279118       0.62507662       0.65338039
H       13.41965967       7.28061887       1.15185974       0.00000000      -0.59706334       0.13440215      -0.24601940
H       19.73061658       8.15464986       4.31916632       0.00000000       0.31147413      -0.40352839      -0.01448947
H       18.91345670      16.11309657      11.16556669       0.00000000      -0.33209346       0.24642752       0.05031029
H        4.89448817       3.85935859       0.79940007       0.00000000       0.09203002       0.80673698       0.19770537
H       19.46129079      11.43498366       8.06514673       0.00000000      -0.70443053      -0.00401819      -0.02258727
H       11.58774638       3.56192759       1.08664915       0.00000000      -0.84783612      -0.40523396       0.01193851
H       13.13463136       9.34522169       7.99025151       0.00000000      -0.22315142       0.33616982      -0.06170708
H       10.59543486      10.41833476       3.97968603       0.00000000      -0.63121659       0.40113927      -0.50092320
H       27.41436059      16.29515631      10.61675096       0.00000000      -0.25357834      -0.33151181       0.30347622
H       22.73509509      13.08552296       7.21486894       0.00000000       0.31974615       0.41709024      -0.23056141
H       12.69871943       5.06877460       7.14131441       0.00000000       0.50542776      -0.19406630      -0.15269215
H       15.62703308       3.62606457       2.59537792       0.00000000      -0.10133815      -0.14730063       0.29278237
H       18.36705772       5.15133136       7.15625290       0.00000000      -0.19353529      -0.25978416      -0.18209499
C       20.48672241      10.02066042       5.14896514       0.00000000      -0.87990906       0.17972496       0.99232864
C       12.84509602       6.48481085      11.28115190       0.00000000      -1.81241433      -0.48561670       2.38942732
C        3.53144105       0.73678091       0.66106399       0.00000000      -0.45563261       1.20638187      -0.96612901
C       18.65581373       9.54174008       7.26779123       0.00000000      -0.81567291       0.94879231       1.37249380
C       16.67637819       7.88948649       0.70550586      -0.00000000      -1.57914234      -0.79241262      -0.19713828
C        8.91854321       3.81861304       4.86979242       0.00000000      -0.82806478      -0.41599903       1.02534878
C        7.46239088       3.24527405       7.11010797       0.00000000       0.24235588      -0.32171107       1.11420842
C       21.73422895      12.60579186      11.62403416       0.00000000       0.00413565       0.75999606      -0.79301682
C       18.19471724       6.20786259      11.72037057       0.00000000      -0.74347788      -0.50253035      -1.93106934
C       11.80693582       9.06419256       4.95291448       0.00000000       0.89739689      -2.23181220       0.53034242
C       11.64179556      10.69054374       7.19489683       0.00000000      -0.32313579       0.45077516      -1.50222429
C       12.81103513       0.50028985       0.44283846       0.00000000       0.82164643      -0.62167303       0.85503116
C       24.15277745      12.64136096      11.56306643       0.00000000      -1.12666800       0.61062420       0.27274321
C        8.88930673       3.23641011       7.16012506       0.00000000      -1.23326535      -0.16719863       1.79784754
C        7.50522781       3.71747850       4.80652472       0.00000000       0.22327257      -0.30106430      -0.95046332
C       14.28285579       7.69327783       0.64294498       0.00000000       0.17851417      -0.63480056       1.00546636
C       19.73676716       8.84658238       5.14831527       0.00000000      -1.59477521       0.79667137       1.76162284
C       11.61789437       4.36740203      11.51964890       0.00000000       0.46136264      -0.66924863       1.51807103
C        4.69054952       2.88286809       0.41730597       0.00000000       0.18065142      -0.56648884      -1.20027482
C       19.37289467      10.73165101       7.23456983       0.00000000       1.16405335       0.46454217      -0.68538298
C       11.49290594       2.55043041       0.65661036       0.00000000       1.95533352       0.08076145       1.83497704
C       12.52317709       9.62983560       7.11635128       0.00000000       1.11599008      -2.28200099       0.94838425
C       11.06071872      10.20283926       4.91782130       0.00000000      -0.56713695       0.98191205      -0.09146925
C       19.66560249       4.23475576      11.34060920       0.00000000      -0.94619407       1.19469542      -0.88981225
C        3.04145299       2.45403344       2.44155846       0.00000000       0.58668166       1.14399947      -1.60891641
C       17.95093787       7.37063981       6.16346162       0.00000000       0.15062810       0.71357855      -2.14279956
C       20.79748926      12.40577302       5.94945847       0.00000000      -0.35819813      -1.60527148      -0.32272118
C       13.37138788       4.57022331       9.73669481       0.00000000      -1.31751200       1.25499838      -0.00085561
C        5.18539316       3.53131606       5.92965045       0.00000000       1.65538144      -2.21071553       1.63782773
C       22.86253905      13.79365345       9.66321146       0.00000000      -0.82467301      -1.10931889       2.18045632
C       15.54977172       6.35725735       2.46075632       0.00000000      -0.67883416       0.16407753      -1.37596575
C       11.10291592       3.45638829       5.99475287       0.00000000       0.96024876       0.49770987      -1.22217881
C       10.29738044      12.42729125       5.90931128      -0.00000000       0.25060241      -0.86004149      -1.15803578
C       13.35050104       2.18943134       2.29927044       0.00000000      -0.26859186       0.47753704      -1.12523517
C       17.70963928       4.66480083       9.78843860       0.00000000       1.82377744      -1.38370780       0.00314368
C       13.45050701       7.38986008       6.03471906      -0.00000000       0.33050667       1.75271690       0.92331985
C       20.19834515      11.02334808       6.13585795       0.00000000       0.68984870      -0.63538095      -0.83718047
C       12.59071940       5.15267473      10.90646774       0.00000000       0.92410522       0.56651183      -1.11247834
C        3.77309597       2.07945079       1.09694971      -0.00000000      -0.37617593      -1.51381799       1.42430907
C       18.72603742       8.65181575       6.22380193       0.00000000       2.03089430      -1.18705162      -2.43224534
C       15.49646644       7.30272289       1.25221115       0.00000000       0.28389847       1.03246479      -0.57686956
C        9.64878124       3.51098307       6.08045032       0.00000000      -1.59854450       1.18518835      -3.91480563
C        6.70779355       3.44986332       5.95161885       0.00000000       1.39327319       0.52395057      -0.33329626
C       22.92217261      13.04528929      10.97551510       0.00000000      -0.51366837      -1.27151287       0.96275812
C       18.56215473       5.06779963      10.95904658       0.00000000      -0.11736561      -1.26002068       0.30725706
C       12.61644481       8.67972846       6.02216078       0.00000000      -0.39133759       2.09793051       1.55165098
C       10.94395668      11.06767370       6.01106960       0.00000000       0.60068771      -0.19424801       0.22449659
C       12.48584365       1.64599065       1.14272801       0.00000000      -0.14101991       2.17142353       0.45961701
O       21.59366330      12.56846295       4.95700558       0.00000000      -0.24565129       0.10406983       0.50117830
O       14.27277832       5.36424599       9.24040988       0.00000000      -0.87893041      -0.93024480       0.66796876
O       16.99589772       1.65726015       2.81861729       0.00000000       1.05681050      -0.27607696      -0.36679291
O       17.11075808       7.14050363       7.04389279       0.00000000      -1.25903400       0.32513798       2.19076764
O       16.70431698       6.09845425       2.91812719       0.00000000      -0.46383717      -0.29365868       0.34665084
O       11.66188119       2.81984176       6.93503613       0.00000000       0.01970747      -0.38076918       0.57969866
O        4.66007791       4.15232881       4.99253428       0.00000000      -0.68849982       1.02708334      -0.54673990
O       21.71773420      14.02919887       9.17534093       0.00000000      -0.18550531       0.13504993      -0.10744129
O       18.00768600       3.56228599       9.14338901       0.00000000       0.18768314       1.28288721       1.32062569
O       13.24246317       6.58661471       5.11713849       0.00000000      -1.43263917      -0.78267020      -2.06294198
O       10.67172201      13.27359313       6.77513855       0.00000000      -0.35078399      -0.09282517       0.64014541
O       13.11566606       3.41416685       2.65946357       0.00000000       0.14526325      -1.36299143       0.13846366
O       23.99007255      14.07038703       9.20660215       0.00000000       1.64064069       0.48550383      -0.94948651
O       11.71934606       3.99350110       4.98008743       0.00000000      -1.10093443       0.01271874       0.88859304
O        4.61220616       2.85371927       6.87610749       0.00000000       0.07688868       0.63158043      -0.31348614
O       14.40613343       5.81775199       2.79677372       0.00000000       1.25421352       0.90907079      -0.24059542
O       18.06159298       6.61158154       5.11011106       0.00000000       0.94762609       1.21916624       0.44322301
O       12.90155206       3.46287290       9.29032843       0.00000000       1.41279915       0.59876707      -0.39748509
O       18.20151812       3.61894368       2.95010241       0.00000000      -0.22334131      -1.54154470      -0.97129061
O       20.40517733      13.24779235       6.80462334       0.00000000      -0.05161777       0.50716548       0.40037854
O       14.31168750       1.43992108       2.67397079       0.00000000      -0.40233438      -0.08248674       0.45321219
O       14.34703764       7.19223043       6.91723664       0.00000000      -0.10985534       0.95520655       1.11208968
O        9.53229569      12.64759734       4.89048617       0.00000000       0.32011682      -0.46840960       0.92086069
O       16.79225287       5.44431428       9.45428873       0.00000000      -0.57841548       0.89379692      -0.59983759
O       15.60765630       3.56346409       3.56834551      -0.00000000       0.03593975       0.77051566       0.12554064
O       17.56967315       4.75075104       6.76005553      -0.00000000       0.60155577      -1.04134553       1.68730471
O       22.90112994      13.98264300       6.85705798      -0.00000000       0.15430271      -0.80766984      -0.57334420
O       13.51952566       4.63599749       6.82445150      -0.00000000       0.14983373       0.26121695       0.25976066
O       15.58047704       3.47595858       7.76724669      -0.00000000      -0.06957285       0.05147068      -0.10703014
O       13.93635136       2.57978498       5.34623064      -0.00000000       1.48399846       0.42580418      -0.88519858
O       15.52866824       5.27482057       5.43022795      -0.00000000       0.76942621      -0.35844599       0.43894923
O       17.11828443       2.56845567       5.36405826      -0.00000000      -0.22057600       1.35799077       0.67118284
114
Lattice="14.556527391330471 0.0 0.0 7.433033372297432 12.751983027274125 0.0 7.245645769621084 4.072068276093342 12.038973200400743" Properties=species:S:1:pos:R:3:initial_magmoms:R:1:dft_forces:R:3 dft_energy=-842.1387599 dft_stress="-0.0108395185427986 -0.009325333035093057 -0.008974162800366335 -0.0013472483570021148 -0.0020218736673254544 -0.0001826535515503136" pbc="T T T"
Zr      22.62631473      14.26532965       4.60325262       0.00000000      -0.35354231      -0.91124001      -0.38205005
Zr      15.36792244       5.62520864       7.48157035       0.00000000      -1.12656581      -0.52287760      -0.59397438
Zr      16.98928279       4.56523746       4.46747126       0.00000000       0.51900055      -0.85025336       1.21815714
Zr      20.88874695      15.28066577       7.50411704       0.00000000       1.05903942      -0.45324622      -0.33976033
Zr      24.47201326      15.29287005       7.51507545      -0.00000000      -0.79559830      -1.02751269      -0.89373770
Zr      13.55284751       4.58036198       4.59925996      -0.00000000      -1.40765819       0.06334388       0.42152217
H       20.69697202      10.29318995       4.03339279      -0.00000000       0.27094674      -0.07429232      -0.30004546
H       13.69665766       6.89681364      11.40209756      -0.00000000       0.51271492       0.37305098      -0.21390602