114
Lattice="14.819215746562389 0.0 0.0 7.2865953414950155 12.685210796712074 0.0 7.397825281211827 4.112993546120385 11.96378588278642" Properties=species:S:1:pos:R:3:initial_magmoms:R:1:dft_forces:R:3 dft_energy=-842.13121459 dft_stress="-0.002845433412780455 -0.006633539312721446 -0.00507578284093259 0.0022821001708128283 0.001726073295601543 -0.003292566962664794" pbc="T T T"
Zr      22.72205358      14.18980739       4.56587281       0.00000000       0.29812259       0.31641841      -0.08193909
Zr      15.44440797       5.65507389       7.37352944       0.00000000       0.88364756      -0.58650493      -0.28867577
Zr      17.28483971       4.57100126       4.51458919       0.00000000       0.84424416       0.38871738       0.87682510
Zr      20.91620989      15.19885271       7.46024550       0.00000000       0.06892889       1.93815184      -1.91401240
Zr      24.56455000      15.13289323       7.39478197       0.00000000      -0.11167861       1.69363325       0.45489952
Zr      13.72594068       4.55883217       4.53474833       0.00000000      -0.35992836      -0.57631104      -1.11819181
H       20.72731991      10.48245821       4.02042339       0.00000000       0.05775562       0.31523771       0.05437960
H       13.85946205       6.77310558      11.27572598       0.00000000       0.50805342       0.83973912       0.23828372
H        9.99593747      12.50820519       1.09945091       0.00000000      -0.05917520      -0.09626248      -0.06926577
H       17.90276525       9.27739214       7.98189369       0.00000000      -0.21294456      -0.53153890       0.46831031
H       17.55139580       7.65272883       1.24240708       0.00000000       0.29800182      -0.29701828       0.11721291
H        9.09607249       4.65270994       4.08812107       0.00000000       0.36724939       0.54162673       0.41871081
H       14.35082263      14.38607706       7.38242078      -0.00000000      -0.72255645      -0.13993446      -0.15969307
H       20.55151238      12.70904599      10.94580845       0.00000000      -0.05556601      -0.35662799       0.51150622
H       17.28135524       7.02807472      11.01584147      -0.00000000      -0.13712122       0.53240129       0.83858691
H       11.36755664       8.10107838       4.12613464       0.00000000       0.31856123       0.50353751       0.04575326
H       12.39963578      11.71487271       7.43109209       0.00000000      -0.40713205       0.06038648      -0.00526983
H       20.57256662      12.50055457       1.08640719       0.00000000       0.10675368       0.22474525      -0.45478462
H       24.74943359      12.93948987      10.93871245       0.00000000       1.16445026      -0.09316134      -0.17056073
H       16.78836687      14.68996551       7.44013940       0.00000000       0.01709555      -0.41707386       0.07834793
H        6.68733819       4.71619916       4.39097327       0.00000000       0.04799473       0.09268777      -0.41018469
H       13.32901062       7.19482658       1.18139350       0.00000000      -0.07066844       0.09622350      -0.20165790
H       19.57907883       8.26477607       4.13110180       0.00000000      -0.23193973       0.06754731      -0.04340107
H       18.41449055      16.19596399      10.92874583       0.00000000       0.18637254      -0.65229938      -0.82207804
H        5.13518828       3.34860103       1.40621329       0.00000000       0.06705013       0.11753195       0.21213242
H       19.50498814      11.22427877       8.11306325       0.00000000      -0.30279548       0.04597190      -0.01020985
H       11.00807394       3.42705450       1.35118497       0.00000000       0.55036026      -0.08376231       0.19310330
H       13.65486130       9.58432630       7.48216782      -0.00000000      -0.07229909      -0.05907237       0.05328694
H       10.39408695      10.36809786       3.78991281       0.00000000      -0.43733724       0.10603733       0.11256271
H       27.02281371      16.23770528      10.71604554       0.00000000      -0.54704334      -0.26893604       0.08852729
H       22.56147121      13.05766345       7.07353879       0.00000000       0.42763912      -0.22782075       0.01652062
H       12.72762735       5.05395883       7.18246859       0.00000000       0.37502108       0.00744651      -0.58677593
H       15.35060354       3.49465245       2.60303602       0.00000000       0.24481219      -0.03625223       0.50230670
H       18.24571009       5.12733154       7.24366839       0.00000000      -0.12809780      -0.14410156      -0.32492972
C       20.10353475      10.19849183       4.86061150       0.00000000       0.01589110       2.00117969       1.93817573
C       13.04258107       6.25701917      11.72966009       0.00000000      -1.16183082      -2.52736339      -0.86973245
C        3.51455578       0.44726733       0.72339203       0.00000000       0.17217482       2.37060156       0.63167573
C       18.56632534       9.51756663       7.17561597       0.00000000      -0.73592379      -1.50783207      -1.81971597
C       16.60406132       7.75117444       0.73489356       0.00000000      -0.24012356      -0.24832715      -1.04623926
C        8.66471722       4.17847359       4.97190042       0.00000000       1.04632651       0.27564320      -1.91558992
C        7.42421957       2.39818202       6.63125841       0.00000000       3.13242979      -0.88167856       2.47086690
C       21.46711596      12.38052707      11.45407978       0.00000000       1.98641025       1.71137208      -1.76732378
C       18.03069341       6.44895350      11.55928698       0.00000000       0.17937652      -1.54325423      -0.69502978
C       11.64658521       8.95153174       4.77405274       0.00000000       0.71807869      -0.22119055      -0.33421466
C       12.16671881      10.94910116       6.69223248       0.00000000      -0.40908753      -0.63168430      -0.72556630
C       12.60351299       0.50693378       0.57320532       0.00000000       0.74931082       0.63109951       0.67876227
C       23.94193943      12.43793741      11.42045477       0.00000000      -1.49478289       1.54349027       0.49033897
C        8.89882490       2.51271527       6.70827485       0.00000000      -3.45695922       1.20059598      -1.42136888
C        7.32418805       4.08864807       5.00047544       0.00000000      -1.94812037       0.36341490       0.43592301
C       14.20766365       7.59205575       0.65775853       0.00000000      -1.37253631      -1.70661801       1.90526790
C       19.44304173       9.02831520       4.89950679       0.00000000      -0.95984934      -1.51465739      -0.10613106
C       11.53650182       4.33478212      11.46962553       0.00000000       0.36206113      -0.16786624       0.36828116
C        4.91527389       2.41982932       0.88177426       0.00000000      -0.55568396       1.88542588       1.83490307
C       19.35699926      10.61559060       7.22132164       0.00000000       0.17514461       1.11177952       0.02583957
C       11.32193467       2.54427203       0.78783493       0.00000000      -1.52423567       2.23706597      -1.02278394
C       12.87035499       9.74624257       6.74559894       0.00000000       0.23178287       0.15454033      -1.26040020
C       11.03534429      10.18816757       4.64626906       0.00000000      -0.64517693       0.57323143       0.59163598
C       19.37912815       4.35786526      11.35596366       0.00000000      -1.32772703       0.89490891      -1.44476983
C        2.97078976       2.19188416       2.50499485      -0.00000000       0.03984527      -0.44347833      -0.91641039
C       17.84130626       7.41198942       5.94024483      -0.00000000       0.66293976       1.18002131      -0.72306542
C       20.52773218      12.36373277       5.98094021      -0.00000000       1.03761209      -0.39453729       0.97398654
C       13.21565588       4.96628395       9.63282489       0.00000000      -1.47101997      -0.75374428       1.75920525
C        5.18090371       3.28925926       5.88152086       0.00000000       0.57420501       1.39629739      -1.16710056
C       22.67993287      13.76576287       9.60576305      -0.00000000      -0.58029194      -1.59639781       2.40670098
C       15.49460101       6.27670866       2.39764192      -0.00000000      -0.34221038      -0.62788559       1.91992373
C       10.93763052       3.53828884       5.87042617      -0.00000000       0.62954053      -0.55515707      -0.76154283
C       10.23685078      12.30895553       5.90377233       0.00000000       0.50588640       0.33593071       0.12716258
C       13.14219040       2.23130323       2.32326616       0.00000000      -0.18166380       0.92772204       0.33424405
C       17.71483695       5.00049763       9.55112906       0.00000000       0.97723297      -2.32126274      -0.48947912
C       13.26160406       7.41601375       5.88387744      -0.00000000       2.03512451       0.52516402      -0.52424063
C       19.94819350      11.03769125       6.04541073       0.00000000       0.99643976      -0.70749035      -2.44452112
C       12.60452960       5.12264726      10.99413935       0.00000000       0.06620339       1.12447147       0.20148902
C        3.80896866       1.70180261       1.39126918       0.00000000       0.78504310      -2.22883725      -1.53982363
C       18.55445301       8.76148963       5.95276037       0.00000000       0.43436625      -1.27955801       1.23648230
C       15.41626613       7.25619720       1.30144307       0.00000000       0.94466228       0.47472922      -1.16303183
C        9.45900472       3.44066170       5.81650605       0.00000000       0.90966306      -1.15004280       1.58106973
C        6.64184329       3.25266745       5.90810680       0.00000000       1.32686480       0.30560597      -1.44502763
C       22.70070805      12.82296691      10.84505362       0.00000000      -1.18147171      -0.52522612      -0.12585191
C       18.36433628       5.29664774      10.85488491       0.00000000       1.50341957      -1.25355165      -0.06080063
C       12.65433557       8.76013877       5.73472887       0.00000000      -1.44791127      -0.14247629       1.30763579
C       11.16481054      11.15709937       5.67347151       0.00000000       1.38440694      -0.32946826       1.51340974
C       12.38911469       1.77382427       1.15334196       0.00000000      -0.42527509      -1.39119860       0.99447649
O       21.49539156      12.51917026       5.15534835       0.00000000      -0.69562557       0.19037511      -0.51387360
O       13.99997771       5.85448964       9.22671690       0.00000000       1.10965203       0.21240281      -1.06767045
O       16.82062944       1.42880865       2.86713793       0.00000000       0.64499636       0.17841070      -0.06324525
O       16.90291085       7.34037818       6.77768126       0.00000000      -0.80661172      -0.78842485       0.42823632
O       16.67256911       5.86383618       2.81922841       0.00000000      -1.70432201       0.78243960      -0.94426533
O       11.46409230       2.85966096       6.84288869       0.00000000       0.74860060       0.90984190      -0.55227412
O        4.65556293       4.04824884       4.99814480       0.00000000      -0.49983718      -0.05817308       0.01911959
O       21.54155666      14.05702404       9.07386300       0.00000000       0.51691116      -0.76075167       1.31995963
O       18.13125562       3.88722622       8.97916375       0.00000000      -0.64932376       0.62455871       1.12946746
O       13.00055594       6.51806103       4.99345450       0.00000000      -0.40793326       1.80848058       1.07954786
O       25.17974339      13.01118534       7.00772633       0.00000000       0.18302448      -0.59967673      -1.24265727
O       12.92796283       3.43870117       2.66239521       0.00000000       0.16596266       0.80608666       0.60889981
O       23.81231423      14.18063758       9.30661277       0.00000000       1.03170944       0.65959662      -1.12109954
O       11.54988715       4.15714771       4.91073468       0.00000000      -0.57460281      -0.35021251       1.18503379
O        4.60200196       2.65061134       6.76931310       0.00000000      -1.73160373      -1.49029978       1.96646683
O       14.35026155       5.90062901       2.90519542       0.00000000       1.58525209       0.32966694      -1.10428254
O       18.25431933       6.53416782       5.08880345      -0.00000000      -0.66732167       0.42551661       0.24644430
O       12.77144874       3.93336850       9.04061116       0.00000000       0.46482594      -1.20025058      -1.23432377
O        3.24635980       3.36764075       2.89843851       0.00000000      -0.16157060      -0.01563238       0.14043882
O       20.17163048      13.16297219       6.91309374       0.00000000       0.07884148       0.77351534      -0.29713853
O       13.96464101       1.47795750       2.90010543       0.00000000       0.78491747      -1.66592332       0.01149460
O       14.21793582       7.38104202       6.78885332      -0.00000000      -1.40406879      -0.73100205      -0.88611873
O        9.38431436      12.48592279       4.98536940       0.00000000      -0.39021614       0.49984340       0.00021918
O       16.83695874       5.77114849       9.06144698       0.00000000      -0.24548025       0.51039901       0.71578063
O       15.48538847       3.49626846       3.57484515      -0.00000000      -0.22015829       0.63523011      -0.74929190
O       17.48225641       4.71592215       6.80205515      -0.00000000      -0.22646531      -0.35570129      -0.73451933
O       22.78620739      13.95723199       6.80012494      -0.00000000      -0.74650871       0.24204228       0.05822875
O       13.51789183       4.79538116       6.65642154      -0.00000000      -0.77118486      -0.65215827       1.88779541
O       15.41943800       3.56558436       7.81661031      -0.00000000       0.14413734       0.09160714      -0.23001276
O       13.86317138       2.64887869       5.31896359      -0.00000000       0.44688926      -0.31472719       1.10558478
O       15.53500645       5.28087052       5.32057224       0.00000000      -0.27060590       0.08450922       0.49948002
O       17.02940626       2.69501075       5.39329787      -0.00000000      -0.82867159      -0.67645936      -0.21874538
114
Lattice="14.871664919574597 0.0 0.0 7.282153813450096 12.942357604005299 0.0 7.364305108354922 4.477731171237165 12.196761239579974" Properties=species:S:1:pos:R:3:initial_magmoms:R:1:dft_forces:R:3 dft_energy=-842.23526565 dft_stress="0.009764884836596911 0.0071187376547193724 0.0054987290387504325 0.0004914742980126752 -0.0022204112167257014 -0.0004160098963790847" pbc="T T T"
Zr      22.86346176      14.43201381       4.73980821       0.00000000      -0.79064740       1.95792120      -0.50462768
Zr      15.51882682       5.85736926       7.49077241       0.00000000      -1.55144251       0.18641790       0.13308669
Zr      17.18749115       4.72910767       4.56279934       0.00000000       1.15690399       0.29309115      -0.96556862
Zr      21.01580395      15.71060415       7.68259794       0.00000000       0.36051921       0.33869035      -1.04181903
Zr      17.32937650       2.81901650       7.52661959       0.00000000       0.39541691       0.33469099       0.03349782
Zr      13.71020723       4.75779789       4.55030764       0.00000000      -0.28878347      -1.53994374       1.67147160
H       20.77456786      10.90245628       4.54295245       0.00000000      -0.67244033      -0.30116014      -0.17535684
H       13.69085966       7.27348950      11.43745036       0.00000000      -0.05641372      -0.41278082       0.34702218
H       10.06271949      12.79999257       1.21892040       0.00000000      -0.39655669      -0.06801743      -0.65749004
H       17.11999760       9.74144765       7.71890765       0.00000000       0.37145250       0.24065216       1.03922202
H       17.57656417       6.66079053       0.62903314       0.00000000       1.05714027       0.12865378       0.16835261
H        9.43864844       4.37070809       3.95581104       0.00000000       0.06090383       0.41021681       0.36993664
H       13.91884587      15.78111582       7.80903665       0.00000000       0.60002680      -0.06361222      -0.48782008
H       20.85711754      13.53022098      11.47573546       0.00000000      -0.37688284       0.07269259      -0.09658535
H       17.73307361       7.57972815      11.07913519       0.00000000      -0.28068716       0.54052598      -0.20629722
H       11.43643081       8.68010112       4.14641877      -0.00000000       0.27087121       0.53933672      -0.14035866
H       11.84564010      11.73466613       8.01640202       0.00000000       0.25640909       0.16122900       0.47606027
H       20.57543951      12.70448718       0.98238343       0.00000000       0.03117558       0.29091194       0.24325510
H       25.02975779      13.13325307      11.09138968       0.00000000       0.74531481      -0.02104729      -0.38763800
H       16.44075844      15.68605390       7.89771069       0.00000000       0.11582892      -0.32111813       0.36519499
H        7.00046476       4.64898283       3.96947633       0.00000000       0.24199822       0.18416759       0.44603435
H       13.39928009       7.32287340       1.20529258      -0.00000000       0.33469374       0.59047572      -0.56882432
H       18.99239276       8.86669518       4.19562488       0.00000000       0.57467392       0.06910714      -0.14389828
H       18.44136633      16.85088897      10.83268978       0.00000000      -0.32078917      -0.52765672       0.57760368
H        5.12503701       3.42989683       1.43300083       0.00000000      -0.36523768      -0.36780270      -0.48073709
H       18.51798805      11.85123258       8.06568937       0.00000000      -0.10648750       0.55276323       0.20480063
H       11.81683063       3.82442047       0.62072979       0.00000000      -0.08488065       0.03750016       0.75796756
H       13.18651692       9.65205094       7.94627100       0.00000000       0.23917415      -0.42458070      -0.17074015
H       10.48456998      11.09492746       3.99391874       0.00000000       0.09953236      -0.20186888       0.58371178
H       26.69026097      16.61696059      11.15684400       0.00000000      -0.04482164      -0.00298270       0.52458733
H       23.03128437      13.48042454       7.27226668       0.00000000      -0.02391924       0.38695692       0.26280308
H       12.78634890       5.27740372       7.41233582       0.00000000       0.13681390       0.08495359      -0.22562810
H       15.32532712       3.50898710       2.65752206       0.00000000       0.46660386      -0.06576214       0.40203863
H       18.31145062       5.33496138       7.05829665       0.00000000      -0.54263141      -0.07374324      -0.25431113
C       19.92110500      10.65338744       5.19386596      -0.00000000      -1.56158978      -0.66755079       0.03683324
C       12.91333450       6.61567747      11.86263056       0.00000000      -0.65440767       0.70033074       0.33710349
C        3.43044354       0.48617456       0.61035451       0.00000000       1.26685126       1.47508659      -0.54061641
C       18.03209208      10.00000084       7.18260951      -0.00000000      -1.16989173      -0.62446373      -0.68088467
C       16.80511736       7.36390319       0.40332066       0.00000000      -3.53615916       0.11001145       0.68019275
C        8.91055013       4.21996214       4.90380397       0.00000000      -1.30138846       0.28525563       0.10964225
C        7.28087367       3.20434065       6.98267143       0.00000000      -0.02090929       0.27539284       0.18665750
C       21.75599483      13.05501048      11.84766076      -0.00000000      -1.09535016       1.26611576      -1.01449672
C       18.35538335       6.84503560      11.55733895      -0.00000000      -0.00902389       0.21078116      -0.43499803
C       11.64550023       9.43944791       4.91615824       0.00000000      -1.53612852       1.31659731      -1.30770550
C       11.84537762      11.09751787       7.15251827       0.00000000       0.41553382      -2.03358847      -0.56690238
C       12.66149727       0.54716692       0.55260435      -0.00000000       0.54122999      -2.07220695       0.07555547
C       24.14678110      12.83299583      11.61330737       0.00000000      -0.43178592      -0.25728039       0.25324838
C        8.67112624       3.15555893       7.02804256       0.00000000       1.03641604       1.03412784       0.24898480
C        7.48587563       4.34240122       4.91673934       0.00000000       0.70886702      -0.10891266      -2.35107062
C       14.30754814       7.66595720       0.66522352       0.00000000       1.23866866      -1.16882263       1.26307442
C       19.02996732       9.51894498       5.06670078      -0.00000000       2.15409405       0.79867518      -0.51115047
C       11.40011851       4.67245861      11.57005613       0.00000000       1.33442423       0.96464125       0.06029741
C        4.81470799       2.55030366       0.83463163       0.00000000       1.77046996      -0.07741829      -1.55442123
C       18.69785695      11.20016214       7.22805329       0.00000000       0.34844848       0.43230874       0.08008653
C       11.77920290       2.75422103       0.44951708      -0.00000000       0.42083096      -0.48501700      -0.63697589
C       12.58244802       9.88630562       7.07553442       0.00000000      -0.80316033       1.77604841       0.66828828
C       11.00621891      10.74106443       4.90294315       0.00000000       0.18061123      -2.01051522      -0.29733156
C       19.26479855       4.63387776      11.67183332      -0.00000000      -1.24781701       0.94540086      -2.84308227
C        2.94429091       2.16731205       2.42647569       0.00000000       1.44270328       0.38008693      -0.41298290
C       17.49500628       7.85722577       5.95471317       0.00000000       0.65580091      -0.28945372      -1.36979006
C       20.49628200      12.78298672       6.33811451       0.00000000       0.44584860       0.55949666      -1.21536898
C       13.28768512       5.14976984       9.85596957       0.00000000      -1.39923921       1.26440290       0.38460542
C        5.16975190       3.91756120       5.83829668       0.00000000       0.35077901       0.95101637      -1.17396862
C       22.87118489      14.33768170       9.96543022      -0.00000000      -0.81122186       0.87812327      -0.73096612
C       15.46543254       6.20770227       2.27517063       0.00000000       0.50843379      -0.49434761       0.65510062
C       11.01529604       3.61647398       6.07216452       0.00000000       1.62740080       0.25865856      -0.25396571
C       10.44304783      12.85657781       6.18302638       0.00000000       0.72860857      -1.15092214       0.34959164
C       13.27904458       2.17557280       2.45309397      -0.00000000       0.92568589      -0.49949822       0.31685703
C       17.77590605       5.27923432       9.62530130       0.00000000      -0.48704502       1.41431537       1.48578849
C       13.16609338       7.73503329       5.96692414       0.00000000      -0.07226022      -0.47824322      -0.01400157
C       19.65045571      11.55640153       6.24075359       0.00000000       0.74349464      -0.86642151       0.30138149
C       12.51845031       5.49216133      11.11396815       0.00000000      -0.43269883       0.38792294       1.13241211
C        3.78736011       1.74914162       1.24398554       0.00000000      -1.29476547      -1.64461693       0.44083327
C       18.20970389       9.12151482       6.10396231       0.00000000       0.59913661       1.61637875      -0.39556197
C       15.52063092       7.06630162       1.09926500       0.00000000       0.78273189       1.15564748      -1.78704924
C        9.56319002       3.77579152       6.06064057       0.00000000      -2.49685643      -1.46697370      -0.41922231
C        6.64755004       3.84268518       5.88836979       0.00000000       1.11136330      -0.27757321       0.87919507
C       22.93557498      13.46411796      11.22262330       0.00000000       0.31858890      -0.49776169      -0.34862231
C       18.39833455       5.58530188      10.95494516       0.00000000       1.80231528      -1.00555885       2.02706888
C       12.45208272       9.05743117       5.95167747       0.00000000       0.58280757      -0.38509434       1.11474275
C       11.02551541      11.47663105       6.08327480       0.00000000       1.09161254       1.00795631       0.04525131
C       12.65062586       1.81486308       1.06421657       0.00000000      -0.77289315       1.98369232       1.95063043
O       21.35892352      12.95562565       5.33017439      -0.00000000      -0.84367708      -0.31878409       1.97487930
O       14.07969927       6.02652419       9.35576774      -0.00000000       0.48684772      -0.74038912       0.05588956
O        2.09831248       1.30851644       2.80521193      -0.00000000      -1.13679174       0.11898098       1.31536898
O       16.58917464       7.61700653       6.78752660      -0.00000000      -1.10653526      -0.46736597       1.48301606
O       16.61548993       5.85510608       2.74512337       0.00000000      -0.85567128      -0.09791635       0.13829842
O       11.55764560       3.03997779       7.07954050      -0.00000000      -0.08525785       0.02369243      -0.11126292
O        4.61949773       4.56356225       4.86289064       0.00000000      -0.43906673      -0.32224450       0.58264444
O       21.69146867      14.79578431       9.55748330       0.00000000       1.95353936      -1.54278279       1.18516335
O       18.16265194       4.20721373       9.09259738      -0.00000000      -0.15699741      -0.90164717      -0.48249471
O       12.95582432       6.89243904       5.01244483       0.00000000      -0.02881448      -0.13034075       0.01730909
O       10.80462922      13.55107993       7.21063092      -0.00000000      -1.45311856       0.91931323      -1.37773206
O       12.89662944       3.29457748       2.97952835      -0.00000000       0.77418516      -0.98094661      -0.99807664
O       23.96582629      14.56470805       9.32146320       0.00000000      -0.35117830      -0.36419843       1.28941368
O       11.68503150       4.09325112       5.05508182      -0.00000000      -1.06573254       0.21037954       1.01914158
O       19.46505533       3.37944683       6.81233291      -0.00000000      -1.09798660      -1.05110594       1.11944341
O       14.30314191       5.90485725       2.77723167      -0.00000000       0.97847142      -0.08213420      -0.37497770
O       17.85880865       7.11640157       4.98561978      -0.00000000      -0.31725595      -1.00124558       0.00181976
O       12.87473181       4.07634487       9.31831648      -0.00000000       0.55349566      -1.13791741      -0.64168811
O        3.22300164       3.32307145       2.91231713      -0.00000000      -0.58496537      -0.03413379       0.19079394
O       20.28725282      13.60239382       7.30080656       0.00000000       0.44517330      -0.36681113      -0.62129639
O       14.14775286       1.33111596       3.00709350      -0.00000000      -1.74804062       1.43357718      -1.36126508
O       13.91016622       7.53414181       6.97668695      -0.00000000       0.58665250      -0.43953156       0.07759755
O        9.66401609      13.11561067       5.19669931      -0.00000000      -0.59388696       0.67529506       0.52563225
O       16.93244343       6.16687777       9.17378369      -0.00000000       0.69354195      -1.27879996       0.00245945
O       15.53567025       3.51296641       3.61477475      -0.00000000      -0.79662663       0.69426321       0.05633687
O       17.45570464       4.99293658       6.71594186      -0.00000000       0.48653093       0.50598525       0.91450783
O       22.97077195      14.41997080       7.00625689      -0.00000000      -0.63999178      -1.01984798      -0.40686420
O       13.53498247       4.85537880       6.95218550      -0.00000000      -0.11107302       0.47742429      -0.41829748
O       15.55732147       3.78066441       8.11347136      -0.00000000       0.47113484       0.83781896      -1.00441160
O       14.04896125       2.83428467       5.58921692      -0.00000000       0.92785104       0.03811123      -0.01373297
O       15.43155776       5.53571312       5.42326153      -0.00000000       0.04806339      -0.78452859      -0.61965914
O       17.05541462       2.91303384       5.48129248      -0.00000000      -0.60481612      -0.76727787       0.16080963
114
Lattice="14.75885959372702 0.0 0.0 7.306010149004958 12.892647377730693 0.0 7.330753817167249 4.511176955185534 12.138704241781584" Properties=species:S:1:pos:R:3:initial_magmoms:R:1:dft_forces:R:3 dft_energy=-842.11450223 dft_stress="-0.0023197467818149805 0.002593768512191237 0.001264374553779533 0.0005631349617057151 0.0019062465088742855 0.0005718790351231669" pbc="T T T"
Zr      22.79613668      14.53290413       4.57973396       0.00000000       0.38795957       0.51805044      -0.40020809
Zr      15.38975205       5.91097383       7.63334023       0.00000000      -0.52398846      -0.86174794      -0.93036178
Zr      17.02049573       4.95937577       4.53296408       0.00000000       1.12798486      -0.24368934       0.56162499
Zr      20.94591000      15.59013233       7.56397017       0.00000000       1.07753656      -0.42152929      -0.09335450
Zr      17.24376621       2.81208579       7.41938111       0.00000000      -1.39155518       0.34684551       0.32889204
Zr      13.55537624       4.66166335       4.61476000       0.00000000       0.88832727       0.55448583       1.15290803
H       20.93605068      10.51856049       4.34338845       0.00000000       0.10806312       0.09828244      -0.02696957
H       13.58609831       7.22136719      11.15196771       0.00000000      -0.15635917       0.52912938      -0.09984542