8
Lattice="5.64 0.0 0.0 0.0 5.64 0.0 0.0 0.0 5.64" Properties=species:S:1:pos:R:3:spacegroup_kinds:I:1:mace_mp_forces:R:3:forces:R:3 spacegroup="P 1" unit_cell=conventional occupancy="_JSON {\"0\": {\"Na\": 1.0}, \"1\": {\"Cl\": 1.0}, \"2\": {\"Na\": 1.0}, \"3\": {\"Cl\": 1.0}, \"4\": {\"Na\": 1.0}, \"5\": {\"Cl\": 1.0}, \"6\": {\"Na\": 1.0}, \"7\": {\"Cl\": 1.0}}" units="_JSON {\"energy\": \"eV\", \"forces\": \"ev/Ang\", \"stress\": \"ev/Ang^3\"}" emissions=4.1549808292465246e-07 model_path=small arch=mace_mp mace_mp_stress="-0.004783275999053416 -0.004783275999053421 -0.0047832759990534225 1.978951662585115e-19 -4.373519055293019e-19 -2.2154676956503004e-20" mace_mp_energy=-27.035127799332745 system_name=NaCl energy=-27.035127799332745 free_energy=-27.035127799332745 stress="-0.004783275999053416 -2.2154676956503004e-20 -4.373519055293019e-19 -2.2154676956503004e-20 -0.004783275999053421 1.978951662585115e-19 -4.373519055293019e-19 1.978951662585115e-19 -0.0047832759990534225" pbc="T T T"
Na       0.00000000       0.00000000       0.00000000        0      -0.00000000      -0.00000000       0.00000000      -0.00000000      -0.00000000       0.00000000
Cl       2.82000000       0.00000000       0.00000000        1      -0.00000000       0.00000000       0.00000000      -0.00000000       0.00000000       0.00000000
Na       0.00000000       2.82000000       2.82000000        2       0.00000000       0.00000000       0.00000000       0.00000000       0.00000000       0.00000000
Cl       2.82000000       2.82000000       2.82000000        3       0.00000000      -0.00000000      -0.00000000       0.00000000      -0.00000000      -0.00000000
Na       2.82000000       0.00000000       2.82000000        4      -0.00000000      -0.00000000       0.00000000      -0.00000000      -0.00000000       0.00000000
Cl       0.00000000       0.00000000       2.82000000        5      -0.00000000      -0.00000000      -0.00000000      -0.00000000      -0.00000000      -0.00000000
Na       2.82000000       2.82000000       0.00000000        6       0.00000000       0.00000000       0.00000000       0.00000000       0.00000000       0.00000000
Cl       0.00000000       2.82000000       0.00000000        7       0.00000000      -0.00000000      -0.00000000       0.00000000      -0.00000000      -0.00000000
